
     Program PHONON v.7.0 starts on  6Jun2026 at  9:52:16 

     This program is part of the open-source Quantum ESPRESSO suite
     for quantum simulation of materials; please cite
         "P. Giannozzi et al., J. Phys.:Condens. Matter 21 395502 (2009);
         "P. Giannozzi et al., J. Phys.:Condens. Matter 29 465901 (2017);
         "P. Giannozzi et al., J. Chem. Phys. 152 154105 (2020);
          URL http://www.quantum-espresso.org", 
     in publications or presentations arising from this work. More details at
     http://www.quantum-espresso.org/quote

     Parallel version (MPI), running on    20 processors

     MPI processes distributed on     1 nodes
     R & G space division:  proc/nbgrp/npool/nimage =      20
     368755 MiB available memory on the printing compute node when the environment starts

     Reading input from Al2O3.ph_grid.in

     Reading xml data from directory:

     ./tmp/Al2O3-Bands.save/
     file O.pbe-n-kjpaw_psl.1.0.0.UPF: wavefunction(s)  2S 2P renormalized
     file Al.pbe-n-kjpaw_psl.1.0.0.UPF: wavefunction(s)  3S 3P renormalized

     IMPORTANT: XC functional enforced from input :
     Exchange-correlation= PBE
                           (   1   4   3   4   0   0   0)
     Any further DFT definition will be discarded
     Please, verify this is what you really want


     Parallelization info
     --------------------
     sticks:   dense  smooth     PW     G-vecs:    dense   smooth      PW
     Min         201     100     29                 8134     2871     456
     Max         202     101     30                 8137     2873     457
     Sum        4037    2009    593               162715    57437    9121

     Using Slab Decomposition

     Reading collected, re-writing distributed wavefunctions


     Dynamical matrices for ( 2, 2, 2)  uniform grid of q-points
     (   8 q-points):
       N         xq(1)         xq(2)         xq(3) 
       1   0.000000000   0.000000000   0.000000000
       2  -0.000508797  -0.000266496  -0.651483995
       3  -0.000508796  -0.607186702   0.236126608
       4  -0.001017593  -0.607453199  -0.415357387
       5  -0.499421986   0.345331190   0.236126603
       6  -0.499930783   0.345064693  -0.415357392
       7  -0.499930782  -0.261855513   0.472253211
       8  -0.500439579  -0.262122009  -0.179230784

     Calculation of q =    0.0000000   0.0000000   0.0000000

     Al2O3 phonon grid                                                          

     bravais-lattice index     =            0
     lattice parameter (alat)  =       9.8018  a.u.
     unit-cell volume          =     595.0557 (a.u.)^3
     number of atoms/cell      =           10
     number of atomic types    =            2
     kinetic-energy cut-off    =      80.0000  Ry
     charge density cut-off    =     640.0000  Ry
     convergence threshold     =      1.0E-14
     beta                      =       0.7000
     number of iterations used =            4
     Exchange-correlation= PBE
                           (   1   4   3   4   0   0   0)


     celldm(1)=    9.80177  celldm(2)=    0.00000  celldm(3)=    0.00000
     celldm(4)=    0.00000  celldm(5)=    0.00000  celldm(6)=    0.00000

     crystal axes: (cart. coord. in units of alat)
               a(1) = (  1.0000 -0.0011 -0.0008 )  
               a(2) = (  0.5685  0.8227 -0.0008 )  
               a(3) = (  0.5685  0.2978  0.7669 )  

     reciprocal axes: (cart. coord. in units 2 pi/alat)
               b(1) = (  0.9988 -0.6907 -0.4723 )  
               b(2) = (  0.0010  1.2144 -0.4723 )  
               b(3) = (  0.0010  0.0005  1.3030 )  


     Atoms inside the unit cell: 

     Cartesian axes

     site n.  atom      mass           positions (alat units)
        1     O   15.9990   tau(    1) = (    1.40227    0.53065    0.19056  )
        2     O   15.9990   tau(    2) = (    0.90227    0.63314    0.04189  )
        3     O   15.9990   tau(    3) = (    1.23471    0.48618    0.72346  )
        4     O   15.9990   tau(    4) = (    1.10273    0.94198    0.42535  )
        5     O   15.9990   tau(    5) = (    1.03424    0.17734    0.34000  )
        6     O   15.9990   tau(    6) = (    0.73471    0.58867    0.57479  )
        7     Al  26.9820   tau(    7) = (    0.31430    0.16462    0.11256  )
        8     Al  26.9820   tau(    8) = (    0.75419    0.39503    0.27011  )
        9     Al  26.9820   tau(    9) = (    1.38278    0.72428    0.49524  )
       10     Al  26.9820   tau(   10) = (    1.82268    0.95469    0.65279  )

     Computing dynamical matrix for 
                    q = (   0.0000000   0.0000000   0.0000000 )

      3 Sym.Ops. (with q -> -q+G )


     G cutoff = 1557.5032  (   8136 G-vectors)     FFT grid: ( 80, 80, 80)
     G cutoff =  778.7516  (   2873 G-vectors)  smooth grid: ( 60, 60, 60)
     number of k points=   868

     PseudoPot. # 1 for O  read from file:
     ./pseudo/O.pbe-n-kjpaw_psl.1.0.0.UPF
     MD5 check sum: e99d9cef9b487d1ca56f5b95ecd0fd7a
     Pseudo is Projector augmented-wave + core cor, Zval =  6.0
     Generated using &quot;atomic&quot; code by A. Dal Corso  v.6.3
     Shape of augmentation charge: PSQ
     Using radial grid of 1095 points,  4 beta functions with: 
                l(1) =   0
                l(2) =   0
                l(3) =   1
                l(4) =   1
     Q(r) pseudized with 0 coefficients 


     PseudoPot. # 2 for Al read from file:
     ./pseudo/Al.pbe-n-kjpaw_psl.1.0.0.UPF
     MD5 check sum: 502b6b27b9c6270cab5dd1084b96fa6d
     Pseudo is Projector augmented-wave + core cor, Zval =  3.0
     Generated using &quot;atomic&quot; code by A. Dal Corso  v.6.3
     Shape of augmentation charge: PSQ
     Using radial grid of 1135 points,  6 beta functions with: 
                l(1) =   0
                l(2) =   0
                l(3) =   1
                l(4) =   1
                l(5) =   2
                l(6) =   2
     Q(r) pseudized with 0 coefficients 


     Mode symmetry, C_i (-1)    point group:


     Electric field:
     Dielectric constant
     Born effective charges in two ways 


     Atomic displacements:
     There are   30 irreducible representations

     Representation     1      1 modes -  To be done

     Representation     2      1 modes -  To be done

     Representation     3      1 modes -  To be done

     Representation     4      1 modes -  To be done

     Representation     5      1 modes -  To be done

     Representation     6      1 modes -  To be done

     Representation     7      1 modes -  To be done

     Representation     8      1 modes -  To be done

     Representation     9      1 modes -  To be done

     Representation    10      1 modes -  To be done

     Representation    11      1 modes -  To be done

     Representation    12      1 modes -  To be done

     Representation    13      1 modes -  To be done

     Representation    14      1 modes -  To be done

     Representation    15      1 modes -  To be done

     Representation    16      1 modes -  To be done

     Representation    17      1 modes -  To be done

     Representation    18      1 modes -  To be done

     Representation    19      1 modes -  To be done

     Representation    20      1 modes -  To be done

     Representation    21      1 modes -  To be done

     Representation    22      1 modes -  To be done

     Representation    23      1 modes -  To be done

     Representation    24      1 modes -  To be done

     Representation    25      1 modes -  To be done

     Representation    26      1 modes -  To be done

     Representation    27      1 modes -  To be done

     Representation    28      1 modes -  To be done

     Representation    29      1 modes -  To be done

     Representation    30      1 modes -  To be done



     Alpha used in Ewald sum =   2.8000
     PHONON       :   2m35.11s CPU   3m14.22s WALL


     Electric Fields Calculation

      iter #   1 total cpu time :  3913.8 secs   av.it.:  11.0
      thresh= 1.000E-02 alpha_mix =  0.700 |ddv_scf|^2 =  2.298E-09

      iter #   2 total cpu time : 22148.5 secs   av.it.:  22.2
      thresh= 4.794E-06 alpha_mix =  0.700 |ddv_scf|^2 =  2.293E-10

      iter #   3 total cpu time : 41099.9 secs   av.it.:  23.3
      thresh= 1.514E-06 alpha_mix =  0.700 |ddv_scf|^2 =  2.359E-10

      iter #   4 total cpu time : 59052.5 secs   av.it.:  21.9
      thresh= 1.536E-06 alpha_mix =  0.700 |ddv_scf|^2 =  6.299E-12

      iter #   5 total cpu time : 76996.3 secs   av.it.:  21.9
      thresh= 2.510E-07 alpha_mix =  0.700 |ddv_scf|^2 =  4.449E-14

      iter #   6 total cpu time : 94887.3 secs   av.it.:  21.8
      thresh= 2.109E-08 alpha_mix =  0.700 |ddv_scf|^2 =  1.084E-15

     End of electric fields calculation

          Dielectric constant in cartesian axis 

          (       3.264022376      -0.014821905      -0.010136438 )
          (      -0.014821912       3.284556831      -0.005309129 )
          (      -0.010136189      -0.005308984       3.288693385 )

          Effective charges (d Force / dE) in cartesian axis without acoustic sum rule applied (asr)

           atom      1   O  Mean Z*:       -1.99236
      Ex  (       -1.85428        0.12779       -0.29418 )
      Ey  (        0.12779       -2.03132       -0.15409 )
      Ez  (       -0.20474       -0.10724       -2.09147 )
           atom      2   O  Mean Z*:       -1.99243
      Ex  (       -1.85435       -0.22779        0.22581 )
      Ey  (       -0.14444       -2.17200       -0.05250 )
      Ez  (        0.19336       -0.09935       -1.95095 )
           atom      3   O  Mean Z*:       -1.99243
      Ex  (       -1.85435       -0.22779        0.22581 )
      Ey  (       -0.14444       -2.17200       -0.05250 )
      Ez  (        0.19336       -0.09935       -1.95095 )
           atom      4   O  Mean Z*:       -1.99243
      Ex  (       -2.24323        0.12494        0.08543 )
      Ey  (        0.04159       -1.78310        0.21552 )
      Ez  (        0.02844        0.21553       -1.95095 )
           atom      5   O  Mean Z*:       -1.99243
      Ex  (       -2.24323        0.12494        0.08543 )
      Ey  (        0.04159       -1.78310        0.21552 )
      Ez  (        0.02844        0.21553       -1.95095 )
           atom      6   O  Mean Z*:       -1.99236
      Ex  (       -1.85428        0.12779       -0.29418 )
      Ey  (        0.12779       -2.03132       -0.15409 )
      Ez  (       -0.20474       -0.10724       -2.09147 )
           atom      7   Al Mean Z*:        2.98361
      Ex  (        2.97084       -0.02267        0.00618 )
      Ey  (       -0.00246        2.98824       -0.03271 )
      Ez  (       -0.02337        0.02371        2.99175 )
           atom      8   Al Mean Z*:        2.98361
      Ex  (        2.97084       -0.00246       -0.02337 )
      Ey  (       -0.02267        2.98824        0.02371 )
      Ez  (        0.00619       -0.03272        2.99175 )
           atom      9   Al Mean Z*:        2.98361
      Ex  (        2.97084       -0.00246       -0.02337 )
      Ey  (       -0.02267        2.98824        0.02371 )
      Ez  (        0.00619       -0.03272        2.99175 )
           atom     10   Al Mean Z*:        2.98361
      Ex  (        2.97084       -0.02267        0.00618 )
      Ey  (       -0.00246        2.98824       -0.03271 )
      Ez  (       -0.02337        0.02371        2.99175 )

          Effective charges Sum: Mean:       -0.02000
             -0.02039       -0.00038       -0.00025
             -0.00038       -0.01987       -0.00013
             -0.00024       -0.00013       -0.01976

          Effective charges (d Force / dE) in cartesian axis with asr applied: 
           atom      1   O  Mean Z*:       -1.99036
      E*x (       -1.85224        0.12782       -0.29416 )
      E*y (        0.12782       -2.02933       -0.15407 )
      E*z (       -0.20472       -0.10723       -2.08950 )
           atom      2   O  Mean Z*:       -1.99043
      E*x (       -1.85231       -0.22775        0.22584 )
      E*y (       -0.14440       -2.17001       -0.05249 )
      E*z (        0.19339       -0.09934       -1.94898 )
           atom      3   O  Mean Z*:       -1.99043
      E*x (       -1.85231       -0.22775        0.22584 )
      E*y (       -0.14440       -2.17001       -0.05249 )
      E*z (        0.19339       -0.09934       -1.94898 )
           atom      4   O  Mean Z*:       -1.99043
      E*x (       -2.24119        0.12498        0.08545 )
      E*y (        0.04163       -1.78111        0.21554 )
      E*z (        0.02846        0.21554       -1.94897 )
           atom      5   O  Mean Z*:       -1.99043
      E*x (       -2.24119        0.12498        0.08545 )
      E*y (        0.04163       -1.78111        0.21554 )
      E*z (        0.02846        0.21554       -1.94897 )
           atom      6   O  Mean Z*:       -1.99036
      E*x (       -1.85224        0.12782       -0.29416 )
      E*y (        0.12782       -2.02933       -0.15407 )
      E*z (       -0.20472       -0.10723       -2.08950 )
           atom      7   Al Mean Z*:        2.98561
      E*x (        2.97288       -0.02263        0.00621 )
      E*y (       -0.00242        2.99023       -0.03270 )
      E*z (       -0.02335        0.02373        2.99372 )
           atom      8   Al Mean Z*:        2.98561
      E*x (        2.97288       -0.00242       -0.02334 )
      E*y (       -0.02263        2.99023        0.02372 )
      E*z (        0.00621       -0.03270        2.99372 )
           atom      9   Al Mean Z*:        2.98561
      E*x (        2.97288       -0.00242       -0.02334 )
      E*y (       -0.02263        2.99023        0.02372 )
      E*z (        0.00621       -0.03270        2.99372 )
           atom     10   Al Mean Z*:        2.98561
      E*x (        2.97288       -0.02263        0.00621 )
      E*y (       -0.00242        2.99023       -0.03270 )
      E*z (       -0.02335        0.02373        2.99372 )


     Representation #   1 mode #   1

     Self-consistent Calculation

      iter #   1 total cpu time :135500.9 secs   av.it.:  10.8
      thresh= 1.000E-02 alpha_mix =  0.700 |ddv_scf|^2 =  6.640E-07

      iter #   2 total cpu time :141002.8 secs   av.it.:  19.9
      thresh= 8.149E-05 alpha_mix =  0.700 |ddv_scf|^2 =  7.245E-08

      iter #   3 total cpu time :146424.3 secs   av.it.:  19.7
      thresh= 2.692E-05 alpha_mix =  0.700 |ddv_scf|^2 =  3.470E-09

      iter #   4 total cpu time :152046.6 secs   av.it.:  20.4
      thresh= 5.891E-06 alpha_mix =  0.700 |ddv_scf|^2 =  6.962E-10

      iter #   5 total cpu time :157483.8 secs   av.it.:  19.9
      thresh= 2.639E-06 alpha_mix =  0.700 |ddv_scf|^2 =  1.452E-11

      iter #   6 total cpu time :162943.0 secs   av.it.:  19.8
      thresh= 3.811E-07 alpha_mix =  0.700 |ddv_scf|^2 =  4.069E-13

      iter #   7 total cpu time :168370.7 secs   av.it.:  19.5
      thresh= 6.379E-08 alpha_mix =  0.700 |ddv_scf|^2 =  1.288E-14

      iter #   8 total cpu time :173628.9 secs   av.it.:  19.3
      thresh= 1.135E-08 alpha_mix =  0.700 |ddv_scf|^2 =  9.960E-16

     End of self-consistent calculation

     Convergence has been achieved 


     Representation #   2 mode #   2

     Self-consistent Calculation

      iter #   1 total cpu time :178618.7 secs   av.it.:  10.9
      thresh= 1.000E-02 alpha_mix =  0.700 |ddv_scf|^2 =  1.035E-06

      iter #   2 total cpu time :184034.5 secs   av.it.:  19.8
      thresh= 1.017E-04 alpha_mix =  0.700 |ddv_scf|^2 =  2.024E-07

      iter #   3 total cpu time :189302.6 secs   av.it.:  19.1
      thresh= 4.499E-05 alpha_mix =  0.700 |ddv_scf|^2 =  2.932E-09

      iter #   4 total cpu time :194901.3 secs   av.it.:  20.5
      thresh= 5.414E-06 alpha_mix =  0.700 |ddv_scf|^2 =  6.730E-10

      iter #   5 total cpu time :200419.1 secs   av.it.:  20.0
      thresh= 2.594E-06 alpha_mix =  0.700 |ddv_scf|^2 =  2.013E-11

      iter #   6 total cpu time :205876.9 secs   av.it.:  19.9
      thresh= 4.487E-07 alpha_mix =  0.700 |ddv_scf|^2 =  2.796E-13

      iter #   7 total cpu time :211069.0 secs   av.it.:  19.0
      thresh= 5.288E-08 alpha_mix =  0.700 |ddv_scf|^2 =  8.516E-15

     End of self-consistent calculation

     Convergence has been achieved 


     Representation #   3 mode #   3

     Self-consistent Calculation

      iter #   1 total cpu time :215372.7 secs   av.it.:   8.0
      thresh= 1.000E-02 alpha_mix =  0.700 |ddv_scf|^2 =  1.925E-08

      iter #   2 total cpu time :221041.7 secs   av.it.:  20.9
      thresh= 1.388E-05 alpha_mix =  0.700 |ddv_scf|^2 =  1.582E-08

      iter #   3 total cpu time :226613.9 secs   av.it.:  20.1
      thresh= 1.258E-05 alpha_mix =  0.700 |ddv_scf|^2 =  9.267E-10

      iter #   4 total cpu time :232070.8 secs   av.it.:  19.8
      thresh= 3.044E-06 alpha_mix =  0.700 |ddv_scf|^2 =  1.261E-11

      iter #   5 total cpu time :237337.0 secs   av.it.:  19.2
      thresh= 3.552E-07 alpha_mix =  0.700 |ddv_scf|^2 =  6.872E-13

      iter #   6 total cpu time :242886.6 secs   av.it.:  19.9
      thresh= 8.290E-08 alpha_mix =  0.700 |ddv_scf|^2 =  9.104E-15

     End of self-consistent calculation

     Convergence has been achieved 


     Representation #   4 mode #   4

     Self-consistent Calculation

      iter #   1 total cpu time :247853.7 secs   av.it.:  10.4
      thresh= 1.000E-02 alpha_mix =  0.700 |ddv_scf|^2 =  4.777E-07

      iter #   2 total cpu time :253408.4 secs   av.it.:  20.0
      thresh= 6.912E-05 alpha_mix =  0.700 |ddv_scf|^2 =  3.616E-08

      iter #   3 total cpu time :258812.4 secs   av.it.:  19.6
      thresh= 1.902E-05 alpha_mix =  0.700 |ddv_scf|^2 =  1.364E-09

      iter #   4 total cpu time :264372.7 secs   av.it.:  20.3
      thresh= 3.693E-06 alpha_mix =  0.700 |ddv_scf|^2 =  2.176E-10

      iter #   5 total cpu time :269922.6 secs   av.it.:  20.2
      thresh= 1.475E-06 alpha_mix =  0.700 |ddv_scf|^2 =  2.213E-11

      iter #   6 total cpu time :275470.0 secs   av.it.:  20.1
      thresh= 4.704E-07 alpha_mix =  0.700 |ddv_scf|^2 =  4.176E-13

      iter #   7 total cpu time :280943.7 secs   av.it.:  20.0
      thresh= 6.462E-08 alpha_mix =  0.700 |ddv_scf|^2 =  1.657E-14

      iter #   8 total cpu time :286494.7 secs   av.it.:  20.3
      thresh= 1.287E-08 alpha_mix =  0.700 |ddv_scf|^2 =  2.907E-15

     End of self-consistent calculation

     Convergence has been achieved 


     Representation #   5 mode #   5

     Self-consistent Calculation

      iter #   1 total cpu time :291456.6 secs   av.it.:  10.5
      thresh= 1.000E-02 alpha_mix =  0.700 |ddv_scf|^2 =  4.930E-07

      iter #   2 total cpu time :296957.5 secs   av.it.:  20.0
      thresh= 7.021E-05 alpha_mix =  0.700 |ddv_scf|^2 =  2.996E-08

      iter #   3 total cpu time :302425.3 secs   av.it.:  20.0
      thresh= 1.731E-05 alpha_mix =  0.700 |ddv_scf|^2 =  2.065E-09

      iter #   4 total cpu time :308043.3 secs   av.it.:  20.5
      thresh= 4.545E-06 alpha_mix =  0.700 |ddv_scf|^2 =  4.693E-10

      iter #   5 total cpu time :313487.0 secs   av.it.:  19.8
      thresh= 2.166E-06 alpha_mix =  0.700 |ddv_scf|^2 =  1.969E-12

      iter #   6 total cpu time :318812.8 secs   av.it.:  19.5
      thresh= 1.403E-07 alpha_mix =  0.700 |ddv_scf|^2 =  2.445E-13

      iter #   7 total cpu time :324310.1 secs   av.it.:  20.1
      thresh= 4.944E-08 alpha_mix =  0.700 |ddv_scf|^2 =  2.115E-14

      iter #   8 total cpu time :329738.2 secs   av.it.:  20.1
      thresh= 1.454E-08 alpha_mix =  0.700 |ddv_scf|^2 =  1.930E-15

     End of self-consistent calculation

     Convergence has been achieved 


     Representation #   6 mode #   6

     Self-consistent Calculation

      iter #   1 total cpu time :334029.2 secs   av.it.:   8.0
      thresh= 1.000E-02 alpha_mix =  0.700 |ddv_scf|^2 =  1.748E-08

      iter #   2 total cpu time :339716.8 secs   av.it.:  20.9
      thresh= 1.322E-05 alpha_mix =  0.700 |ddv_scf|^2 =  1.349E-08

      iter #   3 total cpu time :345277.3 secs   av.it.:  20.2
      thresh= 1.161E-05 alpha_mix =  0.700 |ddv_scf|^2 =  9.246E-10

      iter #   4 total cpu time :350782.1 secs   av.it.:  19.8
      thresh= 3.041E-06 alpha_mix =  0.700 |ddv_scf|^2 =  1.338E-11

      iter #   5 total cpu time :356026.4 secs   av.it.:  19.2
      thresh= 3.658E-07 alpha_mix =  0.700 |ddv_scf|^2 =  9.897E-13

      iter #   6 total cpu time :361332.9 secs   av.it.:  19.4
      thresh= 9.948E-08 alpha_mix =  0.700 |ddv_scf|^2 =  8.131E-14

      iter #   7 total cpu time :366776.3 secs   av.it.:  19.6
      thresh= 2.851E-08 alpha_mix =  0.700 |ddv_scf|^2 =  2.281E-15

     End of self-consistent calculation

     Convergence has been achieved 


     Representation #   7 mode #   7

     Self-consistent Calculation

      iter #   1 total cpu time :370833.6 secs   av.it.:   7.0
      thresh= 1.000E-02 alpha_mix =  0.700 |ddv_scf|^2 =  8.062E-09

      iter #   2 total cpu time :376300.7 secs   av.it.:  20.1
      thresh= 8.979E-06 alpha_mix =  0.700 |ddv_scf|^2 =  1.499E-09

      iter #   3 total cpu time :381929.7 secs   av.it.:  20.5
      thresh= 3.871E-06 alpha_mix =  0.700 |ddv_scf|^2 =  4.253E-10

      iter #   4 total cpu time :387502.6 secs   av.it.:  20.2
      thresh= 2.062E-06 alpha_mix =  0.700 |ddv_scf|^2 =  4.504E-11

      iter #   5 total cpu time :393054.5 secs   av.it.:  20.1
      thresh= 6.711E-07 alpha_mix =  0.700 |ddv_scf|^2 =  1.806E-12

      iter #   6 total cpu time :398392.1 secs   av.it.:  19.5
      thresh= 1.344E-07 alpha_mix =  0.700 |ddv_scf|^2 =  2.154E-14

      iter #   7 total cpu time :403808.5 secs   av.it.:  19.5
      thresh= 1.468E-08 alpha_mix =  0.700 |ddv_scf|^2 =  1.222E-15

     End of self-consistent calculation

     Convergence has been achieved 


     Representation #   8 mode #   8

     Self-consistent Calculation

      iter #   1 total cpu time :408782.4 secs   av.it.:  10.9
      thresh= 1.000E-02 alpha_mix =  0.700 |ddv_scf|^2 =  1.024E-06

      iter #   2 total cpu time :414166.8 secs   av.it.:  19.8
      thresh= 1.012E-04 alpha_mix =  0.700 |ddv_scf|^2 =  2.399E-07

      iter #   3 total cpu time :419220.4 secs   av.it.:  18.3
      thresh= 4.898E-05 alpha_mix =  0.700 |ddv_scf|^2 =  1.160E-09

      iter #   4 total cpu time :424653.5 secs   av.it.:  19.8
      thresh= 3.406E-06 alpha_mix =  0.700 |ddv_scf|^2 =  4.442E-11

      iter #   5 total cpu time :430375.0 secs   av.it.:  21.0
      thresh= 6.665E-07 alpha_mix =  0.700 |ddv_scf|^2 =  3.148E-11

      iter #   6 total cpu time :435812.5 secs   av.it.:  19.8
      thresh= 5.611E-07 alpha_mix =  0.700 |ddv_scf|^2 =  3.201E-13

      iter #   7 total cpu time :441016.5 secs   av.it.:  19.1
      thresh= 5.658E-08 alpha_mix =  0.700 |ddv_scf|^2 =  1.055E-14

      iter #   8 total cpu time :446502.2 secs   av.it.:  20.0
      thresh= 1.027E-08 alpha_mix =  0.700 |ddv_scf|^2 =  7.017E-16

     End of self-consistent calculation

     Convergence has been achieved 


     Representation #   9 mode #   9

     Self-consistent Calculation

      iter #   1 total cpu time :450571.1 secs   av.it.:   7.0
      thresh= 1.000E-02 alpha_mix =  0.700 |ddv_scf|^2 =  9.125E-09

      iter #   2 total cpu time :456134.1 secs   av.it.:  20.5
      thresh= 9.553E-06 alpha_mix =  0.700 |ddv_scf|^2 =  2.761E-09

      iter #   3 total cpu time :461741.8 secs   av.it.:  20.5
      thresh= 5.255E-06 alpha_mix =  0.700 |ddv_scf|^2 =  7.253E-10

      iter #   4 total cpu time :467182.2 secs   av.it.:  20.0
      thresh= 2.693E-06 alpha_mix =  0.700 |ddv_scf|^2 =  2.717E-11

      iter #   5 total cpu time :472662.7 secs   av.it.:  19.9
      thresh= 5.213E-07 alpha_mix =  0.700 |ddv_scf|^2 =  1.626E-12

      iter #   6 total cpu time :477874.0 secs   av.it.:  19.0
      thresh= 1.275E-07 alpha_mix =  0.700 |ddv_scf|^2 =  3.423E-14

      iter #   7 total cpu time :483268.2 secs   av.it.:  19.6
      thresh= 1.850E-08 alpha_mix =  0.700 |ddv_scf|^2 =  1.530E-15

     End of self-consistent calculation

     Convergence has been achieved 


     Representation #  10 mode #  10

     Self-consistent Calculation

      iter #   1 total cpu time :488255.7 secs   av.it.:  10.4
      thresh= 1.000E-02 alpha_mix =  0.700 |ddv_scf|^2 =  6.737E-07

      iter #   2 total cpu time :493741.2 secs   av.it.:  19.8
      thresh= 8.208E-05 alpha_mix =  0.700 |ddv_scf|^2 =  1.201E-07

      iter #   3 total cpu time :498841.4 secs   av.it.:  18.6
      thresh= 3.465E-05 alpha_mix =  0.700 |ddv_scf|^2 =  1.836E-09

      iter #   4 total cpu time :504388.3 secs   av.it.:  20.2
      thresh= 4.285E-06 alpha_mix =  0.700 |ddv_scf|^2 =  2.491E-10

      iter #   5 total cpu time :509950.1 secs   av.it.:  20.2
      thresh= 1.578E-06 alpha_mix =  0.700 |ddv_scf|^2 =  2.182E-11

      iter #   6 total cpu time :515499.0 secs   av.it.:  20.2
      thresh= 4.671E-07 alpha_mix =  0.700 |ddv_scf|^2 =  5.705E-13

      iter #   7 total cpu time :521031.7 secs   av.it.:  20.0
      thresh= 7.553E-08 alpha_mix =  0.700 |ddv_scf|^2 =  1.606E-14

      iter #   8 total cpu time :526414.8 secs   av.it.:  19.7
      thresh= 1.267E-08 alpha_mix =  0.700 |ddv_scf|^2 =  5.389E-16

     End of self-consistent calculation

     Convergence has been achieved 


     Representation #  11 mode #  11

     Self-consistent Calculation

      iter #   1 total cpu time :531402.8 secs   av.it.:  10.9
      thresh= 1.000E-02 alpha_mix =  0.700 |ddv_scf|^2 =  1.200E-06

      iter #   2 total cpu time :536764.1 secs   av.it.:  19.7
      thresh= 1.096E-04 alpha_mix =  0.700 |ddv_scf|^2 =  2.838E-07

      iter #   3 total cpu time :541880.5 secs   av.it.:  18.6
      thresh= 5.328E-05 alpha_mix =  0.700 |ddv_scf|^2 =  1.706E-09

      iter #   4 total cpu time :547483.2 secs   av.it.:  20.4
      thresh= 4.131E-06 alpha_mix =  0.700 |ddv_scf|^2 =  3.149E-10

      iter #   5 total cpu time :552998.1 secs   av.it.:  20.3
      thresh= 1.775E-06 alpha_mix =  0.700 |ddv_scf|^2 =  4.107E-11

      iter #   6 total cpu time :558440.0 secs   av.it.:  19.8
      thresh= 6.408E-07 alpha_mix =  0.700 |ddv_scf|^2 =  3.157E-13

      iter #   7 total cpu time :563761.3 secs   av.it.:  19.3
      thresh= 5.619E-08 alpha_mix =  0.700 |ddv_scf|^2 =  5.819E-15

     End of self-consistent calculation

     Convergence has been achieved 


     Representation #  12 mode #  12

     Self-consistent Calculation

      iter #   1 total cpu time :568788.6 secs   av.it.:  10.5
      thresh= 1.000E-02 alpha_mix =  0.700 |ddv_scf|^2 =  4.831E-07

      iter #   2 total cpu time :574279.7 secs   av.it.:  20.0
      thresh= 6.950E-05 alpha_mix =  0.700 |ddv_scf|^2 =  3.761E-08

      iter #   3 total cpu time :579563.1 secs   av.it.:  19.4
      thresh= 1.939E-05 alpha_mix =  0.700 |ddv_scf|^2 =  1.051E-09

      iter #   4 total cpu time :584932.0 secs   av.it.:  19.7
      thresh= 3.241E-06 alpha_mix =  0.700 |ddv_scf|^2 =  4.910E-11

      iter #   5 total cpu time :590609.2 secs   av.it.:  20.6
      thresh= 7.007E-07 alpha_mix =  0.700 |ddv_scf|^2 =  1.812E-11

      iter #   6 total cpu time :596164.3 secs   av.it.:  20.1
      thresh= 4.256E-07 alpha_mix =  0.700 |ddv_scf|^2 =  5.617E-13

      iter #   7 total cpu time :601646.7 secs   av.it.:  20.0
      thresh= 7.495E-08 alpha_mix =  0.700 |ddv_scf|^2 =  1.828E-14

      iter #   8 total cpu time :607151.6 secs   av.it.:  20.3
      thresh= 1.352E-08 alpha_mix =  0.700 |ddv_scf|^2 =  3.028E-15

     End of self-consistent calculation

     Convergence has been achieved 


     Representation #  13 mode #  13

     Self-consistent Calculation

      iter #   1 total cpu time :611631.9 secs   av.it.:   8.0
      thresh= 1.000E-02 alpha_mix =  0.700 |ddv_scf|^2 =  1.928E-08

      iter #   2 total cpu time :617381.8 secs   av.it.:  21.0
      thresh= 1.388E-05 alpha_mix =  0.700 |ddv_scf|^2 =  1.587E-08

      iter #   3 total cpu time :622913.8 secs   av.it.:  20.2
      thresh= 1.260E-05 alpha_mix =  0.700 |ddv_scf|^2 =  9.252E-10

      iter #   4 total cpu time :628386.9 secs   av.it.:  19.8
      thresh= 3.042E-06 alpha_mix =  0.700 |ddv_scf|^2 =  1.260E-11

      iter #   5 total cpu time :633628.5 secs   av.it.:  19.3
      thresh= 3.550E-07 alpha_mix =  0.700 |ddv_scf|^2 =  6.813E-13

      iter #   6 total cpu time :639118.6 secs   av.it.:  19.9
      thresh= 8.254E-08 alpha_mix =  0.700 |ddv_scf|^2 =  6.297E-15

     End of self-consistent calculation

     Convergence has been achieved 


     Representation #  14 mode #  14

     Self-consistent Calculation

      iter #   1 total cpu time :643429.8 secs   av.it.:   8.0
      thresh= 1.000E-02 alpha_mix =  0.700 |ddv_scf|^2 =  1.866E-08

      iter #   2 total cpu time :649121.9 secs   av.it.:  20.9
      thresh= 1.366E-05 alpha_mix =  0.700 |ddv_scf|^2 =  1.507E-08

      iter #   3 total cpu time :654588.6 secs   av.it.:  20.1
      thresh= 1.228E-05 alpha_mix =  0.700 |ddv_scf|^2 =  9.230E-10

      iter #   4 total cpu time :660042.0 secs   av.it.:  19.8
      thresh= 3.038E-06 alpha_mix =  0.700 |ddv_scf|^2 =  1.284E-11

      iter #   5 total cpu time :665269.6 secs   av.it.:  19.3
      thresh= 3.583E-07 alpha_mix =  0.700 |ddv_scf|^2 =  7.962E-13

      iter #   6 total cpu time :670661.4 secs   av.it.:  19.6
      thresh= 8.923E-08 alpha_mix =  0.700 |ddv_scf|^2 =  5.823E-14

      iter #   7 total cpu time :676075.9 secs   av.it.:  19.6
      thresh= 2.413E-08 alpha_mix =  0.700 |ddv_scf|^2 =  2.306E-15

     End of self-consistent calculation

     Convergence has been achieved 


     Representation #  15 mode #  15

     Self-consistent Calculation

      iter #   1 total cpu time :681019.5 secs   av.it.:  10.5
      thresh= 1.000E-02 alpha_mix =  0.700 |ddv_scf|^2 =  4.627E-07

      iter #   2 total cpu time :686519.7 secs   av.it.:  20.0
      thresh= 6.802E-05 alpha_mix =  0.700 |ddv_scf|^2 =  2.762E-08

      iter #   3 total cpu time :691902.4 secs   av.it.:  19.5
      thresh= 1.662E-05 alpha_mix =  0.700 |ddv_scf|^2 =  5.004E-10

      iter #   4 total cpu time :697430.5 secs   av.it.:  20.3
      thresh= 2.237E-06 alpha_mix =  0.700 |ddv_scf|^2 =  8.109E-11

      iter #   5 total cpu time :703023.6 secs   av.it.:  20.5
      thresh= 9.005E-07 alpha_mix =  0.700 |ddv_scf|^2 =  1.668E-11

      iter #   6 total cpu time :708514.7 secs   av.it.:  20.1
      thresh= 4.084E-07 alpha_mix =  0.700 |ddv_scf|^2 =  3.954E-13

      iter #   7 total cpu time :714011.5 secs   av.it.:  19.9
      thresh= 6.288E-08 alpha_mix =  0.700 |ddv_scf|^2 =  1.861E-14

      iter #   8 total cpu time :719599.2 secs   av.it.:  20.3
      thresh= 1.364E-08 alpha_mix =  0.700 |ddv_scf|^2 =  2.970E-15

     End of self-consistent calculation

     Convergence has been achieved 


     Representation #  16 mode #  16

     Self-consistent Calculation

      iter #   1 total cpu time :723740.8 secs   av.it.:   7.0
      thresh= 1.000E-02 alpha_mix =  0.700 |ddv_scf|^2 =  9.925E-09

      iter #   2 total cpu time :729497.3 secs   av.it.:  20.9
      thresh= 9.963E-06 alpha_mix =  0.700 |ddv_scf|^2 =  7.711E-09

      iter #   3 total cpu time :735025.6 secs   av.it.:  20.2
      thresh= 8.781E-06 alpha_mix =  0.700 |ddv_scf|^2 =  5.823E-10

      iter #   4 total cpu time :740481.0 secs   av.it.:  20.0
      thresh= 2.413E-06 alpha_mix =  0.700 |ddv_scf|^2 =  1.496E-11

      iter #   5 total cpu time :746077.4 secs   av.it.:  20.5
      thresh= 3.868E-07 alpha_mix =  0.700 |ddv_scf|^2 =  6.423E-12

      iter #   6 total cpu time :751434.1 secs   av.it.:  19.6
      thresh= 2.534E-07 alpha_mix =  0.700 |ddv_scf|^2 =  1.051E-13

      iter #   7 total cpu time :756773.8 secs   av.it.:  19.6
      thresh= 3.242E-08 alpha_mix =  0.700 |ddv_scf|^2 =  4.751E-15

     End of self-consistent calculation

     Convergence has been achieved 


     Representation #  17 mode #  17

     Self-consistent Calculation

      iter #   1 total cpu time :761752.0 secs   av.it.:  10.7
      thresh= 1.000E-02 alpha_mix =  0.700 |ddv_scf|^2 =  6.212E-07

      iter #   2 total cpu time :767264.0 secs   av.it.:  20.0
      thresh= 7.882E-05 alpha_mix =  0.700 |ddv_scf|^2 =  6.307E-08

      iter #   3 total cpu time :772684.0 secs   av.it.:  19.8
      thresh= 2.511E-05 alpha_mix =  0.700 |ddv_scf|^2 =  2.631E-09

      iter #   4 total cpu time :778324.8 secs   av.it.:  20.6
      thresh= 5.130E-06 alpha_mix =  0.700 |ddv_scf|^2 =  8.229E-10

      iter #   5 total cpu time :783750.0 secs   av.it.:  19.8
      thresh= 2.869E-06 alpha_mix =  0.700 |ddv_scf|^2 =  5.725E-12

      iter #   6 total cpu time :789295.4 secs   av.it.:  20.3
      thresh= 2.393E-07 alpha_mix =  0.700 |ddv_scf|^2 =  1.152E-12

      iter #   7 total cpu time :794947.1 secs   av.it.:  20.4
      thresh= 1.073E-07 alpha_mix =  0.700 |ddv_scf|^2 =  4.014E-13

      iter #   8 total cpu time :800445.2 secs   av.it.:  19.9
      thresh= 6.335E-08 alpha_mix =  0.700 |ddv_scf|^2 =  2.700E-15

     End of self-consistent calculation

     Convergence has been achieved 


     Representation #  18 mode #  18

     Self-consistent Calculation

      iter #   1 total cpu time :805497.3 secs   av.it.:  10.4
      thresh= 1.000E-02 alpha_mix =  0.700 |ddv_scf|^2 =  3.859E-07

      iter #   2 total cpu time :810959.0 secs   av.it.:  20.0
      thresh= 6.212E-05 alpha_mix =  0.700 |ddv_scf|^2 =  1.810E-08

      iter #   3 total cpu time :816334.9 secs   av.it.:  19.7
      thresh= 1.345E-05 alpha_mix =  0.700 |ddv_scf|^2 =  6.715E-10

      iter #   4 total cpu time :821950.1 secs   av.it.:  20.8
      thresh= 2.591E-06 alpha_mix =  0.700 |ddv_scf|^2 =  3.848E-10

      iter #   5 total cpu time :827387.0 secs   av.it.:  19.7
      thresh= 1.962E-06 alpha_mix =  0.700 |ddv_scf|^2 =  2.514E-12

      iter #   6 total cpu time :832870.2 secs   av.it.:  20.0
      thresh= 1.586E-07 alpha_mix =  0.700 |ddv_scf|^2 =  2.768E-13

      iter #   7 total cpu time :838517.9 secs   av.it.:  20.6
      thresh= 5.261E-08 alpha_mix =  0.700 |ddv_scf|^2 =  1.397E-13

      iter #   8 total cpu time :843966.5 secs   av.it.:  19.9
      thresh= 3.738E-08 alpha_mix =  0.700 |ddv_scf|^2 =  4.840E-15

     End of self-consistent calculation

     Convergence has been achieved 


     Representation #  19 mode #  19

     Self-consistent Calculation

      iter #   1 total cpu time :848060.9 secs   av.it.:   7.0
      thresh= 1.000E-02 alpha_mix =  0.700 |ddv_scf|^2 =  9.635E-09

      iter #   2 total cpu time :853738.9 secs   av.it.:  20.9
      thresh= 9.816E-06 alpha_mix =  0.700 |ddv_scf|^2 =  7.415E-09

      iter #   3 total cpu time :859246.6 secs   av.it.:  20.2
      thresh= 8.611E-06 alpha_mix =  0.700 |ddv_scf|^2 =  5.840E-10

      iter #   4 total cpu time :864718.5 secs   av.it.:  19.9
      thresh= 2.417E-06 alpha_mix =  0.700 |ddv_scf|^2 =  1.377E-11

      iter #   5 total cpu time :870319.1 secs   av.it.:  20.5
      thresh= 3.711E-07 alpha_mix =  0.700 |ddv_scf|^2 =  4.921E-12

      iter #   6 total cpu time :875755.9 secs   av.it.:  19.6
      thresh= 2.218E-07 alpha_mix =  0.700 |ddv_scf|^2 =  9.244E-14

      iter #   7 total cpu time :881115.5 secs   av.it.:  19.6
      thresh= 3.040E-08 alpha_mix =  0.700 |ddv_scf|^2 =  4.297E-15

     End of self-consistent calculation

     Convergence has been achieved 


     Representation #  20 mode #  20

     Self-consistent Calculation

      iter #   1 total cpu time :886074.4 secs   av.it.:  10.2
      thresh= 1.000E-02 alpha_mix =  0.700 |ddv_scf|^2 =  2.626E-07

      iter #   2 total cpu time :891579.4 secs   av.it.:  20.2
      thresh= 5.124E-05 alpha_mix =  0.700 |ddv_scf|^2 =  8.273E-09

      iter #   3 total cpu time :896964.5 secs   av.it.:  20.0
      thresh= 9.095E-06 alpha_mix =  0.700 |ddv_scf|^2 =  6.092E-10

      iter #   4 total cpu time :902557.8 secs   av.it.:  20.6
      thresh= 2.468E-06 alpha_mix =  0.700 |ddv_scf|^2 =  2.444E-10

      iter #   5 total cpu time :908003.2 secs   av.it.:  19.8
      thresh= 1.563E-06 alpha_mix =  0.700 |ddv_scf|^2 =  2.815E-12

      iter #   6 total cpu time :913517.6 secs   av.it.:  20.1
      thresh= 1.678E-07 alpha_mix =  0.700 |ddv_scf|^2 =  2.771E-13

      iter #   7 total cpu time :919142.1 secs   av.it.:  20.7
      thresh= 5.264E-08 alpha_mix =  0.700 |ddv_scf|^2 =  1.678E-13

      iter #   8 total cpu time :924561.3 secs   av.it.:  19.9
      thresh= 4.096E-08 alpha_mix =  0.700 |ddv_scf|^2 =  3.882E-15

     End of self-consistent calculation

     Convergence has been achieved 


     Representation #  21 mode #  21

     Self-consistent Calculation

      iter #   1 total cpu time :929480.8 secs   av.it.:  10.2
      thresh= 1.000E-02 alpha_mix =  0.700 |ddv_scf|^2 =  3.089E-07

      iter #   2 total cpu time :935041.8 secs   av.it.:  20.2
      thresh= 5.558E-05 alpha_mix =  0.700 |ddv_scf|^2 =  1.568E-08

      iter #   3 total cpu time :940503.2 secs   av.it.:  19.9
      thresh= 1.252E-05 alpha_mix =  0.700 |ddv_scf|^2 =  9.537E-10

      iter #   4 total cpu time :946144.5 secs   av.it.:  20.7
      thresh= 3.088E-06 alpha_mix =  0.700 |ddv_scf|^2 =  3.768E-10

      iter #   5 total cpu time :951614.5 secs   av.it.:  19.8
      thresh= 1.941E-06 alpha_mix =  0.700 |ddv_scf|^2 =  3.210E-12

      iter #   6 total cpu time :957052.3 secs   av.it.:  20.1
      thresh= 1.792E-07 alpha_mix =  0.700 |ddv_scf|^2 =  4.069E-13

      iter #   7 total cpu time :962719.7 secs   av.it.:  20.7
      thresh= 6.379E-08 alpha_mix =  0.700 |ddv_scf|^2 =  2.242E-13

      iter #   8 total cpu time :968216.1 secs   av.it.:  20.0
      thresh= 4.735E-08 alpha_mix =  0.700 |ddv_scf|^2 =  7.603E-15

     End of self-consistent calculation

     Convergence has been achieved 


     Representation #  22 mode #  22

     Self-consistent Calculation

      iter #   1 total cpu time :972417.0 secs   av.it.:   7.3
      thresh= 1.000E-02 alpha_mix =  0.700 |ddv_scf|^2 =  1.476E-08

      iter #   2 total cpu time :978067.2 secs   av.it.:  20.9
      thresh= 1.215E-05 alpha_mix =  0.700 |ddv_scf|^2 =  1.260E-08

      iter #   3 total cpu time :983524.3 secs   av.it.:  20.0
      thresh= 1.122E-05 alpha_mix =  0.700 |ddv_scf|^2 =  5.898E-10

      iter #   4 total cpu time :988942.5 secs   av.it.:  19.9
      thresh= 2.429E-06 alpha_mix =  0.700 |ddv_scf|^2 =  2.134E-11

      iter #   5 total cpu time :994561.8 secs   av.it.:  20.6
      thresh= 4.619E-07 alpha_mix =  0.700 |ddv_scf|^2 =  1.073E-11

      iter #   6 total cpu time :999947.3 secs   av.it.:  19.6
      thresh= 3.276E-07 alpha_mix =  0.700 |ddv_scf|^2 =  4.058E-13

      iter #   7 total cpu time :******** secs   av.it.:  19.7
      thresh= 6.370E-08 alpha_mix =  0.700 |ddv_scf|^2 =  1.017E-14

      iter #   8 total cpu time :******** secs   av.it.:  19.9
      thresh= 1.009E-08 alpha_mix =  0.700 |ddv_scf|^2 =  3.638E-16

     End of self-consistent calculation

     Convergence has been achieved 


     Representation #  23 mode #  23

     Self-consistent Calculation

      iter #   1 total cpu time :******** secs   av.it.:   7.6
      thresh= 1.000E-02 alpha_mix =  0.700 |ddv_scf|^2 =  1.848E-08

      iter #   2 total cpu time :******** secs   av.it.:  20.7
      thresh= 1.359E-05 alpha_mix =  0.700 |ddv_scf|^2 =  1.631E-08

      iter #   3 total cpu time :******** secs   av.it.:  19.8
      thresh= 1.277E-05 alpha_mix =  0.700 |ddv_scf|^2 =  6.158E-10

      iter #   4 total cpu time :******** secs   av.it.:  19.7
      thresh= 2.481E-06 alpha_mix =  0.700 |ddv_scf|^2 =  1.653E-11

      iter #   5 total cpu time :******** secs   av.it.:  20.1
      thresh= 4.066E-07 alpha_mix =  0.700 |ddv_scf|^2 =  4.590E-12

      iter #   6 total cpu time :******** secs   av.it.:  19.8
      thresh= 2.142E-07 alpha_mix =  0.700 |ddv_scf|^2 =  7.708E-13

      iter #   7 total cpu time :******** secs   av.it.:  19.7
      thresh= 8.780E-08 alpha_mix =  0.700 |ddv_scf|^2 =  1.282E-14

      iter #   8 total cpu time :******** secs   av.it.:  19.7
      thresh= 1.132E-08 alpha_mix =  0.700 |ddv_scf|^2 =  2.010E-16

     End of self-consistent calculation

     Convergence has been achieved 


     Representation #  24 mode #  24

     Self-consistent Calculation

      iter #   1 total cpu time :******** secs   av.it.:  10.2
      thresh= 1.000E-02 alpha_mix =  0.700 |ddv_scf|^2 =  3.803E-07

      iter #   2 total cpu time :******** secs   av.it.:  20.0
      thresh= 6.166E-05 alpha_mix =  0.700 |ddv_scf|^2 =  1.908E-08

      iter #   3 total cpu time :******** secs   av.it.:  19.7
      thresh= 1.381E-05 alpha_mix =  0.700 |ddv_scf|^2 =  6.567E-10

      iter #   4 total cpu time :******** secs   av.it.:  20.7
      thresh= 2.563E-06 alpha_mix =  0.700 |ddv_scf|^2 =  3.570E-10

      iter #   5 total cpu time :******** secs   av.it.:  19.8
      thresh= 1.889E-06 alpha_mix =  0.700 |ddv_scf|^2 =  2.804E-12

      iter #   6 total cpu time :******** secs   av.it.:  20.0
      thresh= 1.674E-07 alpha_mix =  0.700 |ddv_scf|^2 =  3.054E-13

      iter #   7 total cpu time :******** secs   av.it.:  20.5
      thresh= 5.527E-08 alpha_mix =  0.700 |ddv_scf|^2 =  1.254E-13

      iter #   8 total cpu time :******** secs   av.it.:  20.0
      thresh= 3.541E-08 alpha_mix =  0.700 |ddv_scf|^2 =  7.811E-15

     End of self-consistent calculation

     Convergence has been achieved 


     Representation #  25 mode #  25

     Self-consistent Calculation

      iter #   1 total cpu time :******** secs   av.it.:   7.1
      thresh= 1.000E-02 alpha_mix =  0.700 |ddv_scf|^2 =  1.254E-08

      iter #   2 total cpu time :******** secs   av.it.:  20.9
      thresh= 1.120E-05 alpha_mix =  0.700 |ddv_scf|^2 =  1.037E-08

      iter #   3 total cpu time :******** secs   av.it.:  20.1
      thresh= 1.018E-05 alpha_mix =  0.700 |ddv_scf|^2 =  5.806E-10

      iter #   4 total cpu time :******** secs   av.it.:  20.0
      thresh= 2.410E-06 alpha_mix =  0.700 |ddv_scf|^2 =  2.076E-11

      iter #   5 total cpu time :******** secs   av.it.:  20.7
      thresh= 4.556E-07 alpha_mix =  0.700 |ddv_scf|^2 =  1.129E-11

      iter #   6 total cpu time :******** secs   av.it.:  19.7
      thresh= 3.360E-07 alpha_mix =  0.700 |ddv_scf|^2 =  2.550E-13

      iter #   7 total cpu time :******** secs   av.it.:  19.7
      thresh= 5.049E-08 alpha_mix =  0.700 |ddv_scf|^2 =  8.240E-15

     End of self-consistent calculation

     Convergence has been achieved 


     Representation #  26 mode #  26

     Self-consistent Calculation

      iter #   1 total cpu time :******** secs   av.it.:  10.3
      thresh= 1.000E-02 alpha_mix =  0.700 |ddv_scf|^2 =  5.193E-07

      iter #   2 total cpu time :******** secs   av.it.:  19.9
      thresh= 7.207E-05 alpha_mix =  0.700 |ddv_scf|^2 =  3.026E-08

      iter #   3 total cpu time :******** secs   av.it.:  19.5
      thresh= 1.740E-05 alpha_mix =  0.700 |ddv_scf|^2 =  7.810E-10

      iter #   4 total cpu time :******** secs   av.it.:  20.7
      thresh= 2.795E-06 alpha_mix =  0.700 |ddv_scf|^2 =  4.163E-10

      iter #   5 total cpu time :******** secs   av.it.:  19.8
      thresh= 2.040E-06 alpha_mix =  0.700 |ddv_scf|^2 =  2.468E-12

      iter #   6 total cpu time :******** secs   av.it.:  19.9
      thresh= 1.571E-07 alpha_mix =  0.700 |ddv_scf|^2 =  2.604E-13

      iter #   7 total cpu time :******** secs   av.it.:  20.4
      thresh= 5.103E-08 alpha_mix =  0.700 |ddv_scf|^2 =  1.007E-13

      iter #   8 total cpu time :******** secs   av.it.:  19.8
      thresh= 3.174E-08 alpha_mix =  0.700 |ddv_scf|^2 =  4.331E-15

     End of self-consistent calculation

     Convergence has been achieved 


     Representation #  27 mode #  27

     Self-consistent Calculation

      iter #   1 total cpu time :******** secs   av.it.:  10.8
      thresh= 1.000E-02 alpha_mix =  0.700 |ddv_scf|^2 =  5.623E-07

      iter #   2 total cpu time :******** secs   av.it.:  20.0
      thresh= 7.499E-05 alpha_mix =  0.700 |ddv_scf|^2 =  6.260E-08

      iter #   3 total cpu time :******** secs   av.it.:  19.8
      thresh= 2.502E-05 alpha_mix =  0.700 |ddv_scf|^2 =  2.729E-09

      iter #   4 total cpu time :******** secs   av.it.:  20.6
      thresh= 5.224E-06 alpha_mix =  0.700 |ddv_scf|^2 =  9.689E-10

      iter #   5 total cpu time :******** secs   av.it.:  19.8
      thresh= 3.113E-06 alpha_mix =  0.700 |ddv_scf|^2 =  5.045E-12

      iter #   6 total cpu time :******** secs   av.it.:  20.4
      thresh= 2.246E-07 alpha_mix =  0.700 |ddv_scf|^2 =  1.301E-12

      iter #   7 total cpu time :******** secs   av.it.:  20.3
      thresh= 1.141E-07 alpha_mix =  0.700 |ddv_scf|^2 =  3.473E-13

      iter #   8 total cpu time :******** secs   av.it.:  19.9
      thresh= 5.893E-08 alpha_mix =  0.700 |ddv_scf|^2 =  2.956E-15

     End of self-consistent calculation

     Convergence has been achieved 


     Representation #  28 mode #  28

     Self-consistent Calculation

      iter #   1 total cpu time :******** secs   av.it.:   7.0
      thresh= 1.000E-02 alpha_mix =  0.700 |ddv_scf|^2 =  9.122E-09

      iter #   2 total cpu time :******** secs   av.it.:  20.9
      thresh= 9.551E-06 alpha_mix =  0.700 |ddv_scf|^2 =  6.890E-09

      iter #   3 total cpu time :******** secs   av.it.:  20.1
      thresh= 8.301E-06 alpha_mix =  0.700 |ddv_scf|^2 =  5.882E-10

      iter #   4 total cpu time :******** secs   av.it.:  19.9
      thresh= 2.425E-06 alpha_mix =  0.700 |ddv_scf|^2 =  1.147E-11

      iter #   5 total cpu time :******** secs   av.it.:  19.9
      thresh= 3.387E-07 alpha_mix =  0.700 |ddv_scf|^2 =  1.121E-12

      iter #   6 total cpu time :******** secs   av.it.:  19.7
      thresh= 1.059E-07 alpha_mix =  0.700 |ddv_scf|^2 =  9.537E-14

      iter #   7 total cpu time :******** secs   av.it.:  19.7
      thresh= 3.088E-08 alpha_mix =  0.700 |ddv_scf|^2 =  3.369E-15

     End of self-consistent calculation

     Convergence has been achieved 


     Representation #  29 mode #  29

     Self-consistent Calculation

      iter #   1 total cpu time :******** secs   av.it.:  10.8
      thresh= 1.000E-02 alpha_mix =  0.700 |ddv_scf|^2 =  7.263E-07

      iter #   2 total cpu time :******** secs   av.it.:  20.0
      thresh= 8.522E-05 alpha_mix =  0.700 |ddv_scf|^2 =  1.041E-07

      iter #   3 total cpu time :******** secs   av.it.:  19.7
      thresh= 3.227E-05 alpha_mix =  0.700 |ddv_scf|^2 =  3.759E-09

      iter #   4 total cpu time :******** secs   av.it.:  20.5
      thresh= 6.131E-06 alpha_mix =  0.700 |ddv_scf|^2 =  1.131E-09

      iter #   5 total cpu time :******** secs   av.it.:  19.7
      thresh= 3.363E-06 alpha_mix =  0.700 |ddv_scf|^2 =  6.342E-12

      iter #   6 total cpu time :******** secs   av.it.:  20.3
      thresh= 2.518E-07 alpha_mix =  0.700 |ddv_scf|^2 =  2.033E-12

      iter #   7 total cpu time :******** secs   av.it.:  20.2
      thresh= 1.426E-07 alpha_mix =  0.700 |ddv_scf|^2 =  3.424E-13

      iter #   8 total cpu time :******** secs   av.it.:  19.9
      thresh= 5.852E-08 alpha_mix =  0.700 |ddv_scf|^2 =  3.182E-15

     End of self-consistent calculation

     Convergence has been achieved 


     Representation #  30 mode #  30

     Self-consistent Calculation

      iter #   1 total cpu time :******** secs   av.it.:  10.8
      thresh= 1.000E-02 alpha_mix =  0.700 |ddv_scf|^2 =  7.105E-07

      iter #   2 total cpu time :******** secs   av.it.:  20.0
      thresh= 8.429E-05 alpha_mix =  0.700 |ddv_scf|^2 =  1.028E-07

      iter #   3 total cpu time :******** secs   av.it.:  19.7
      thresh= 3.206E-05 alpha_mix =  0.700 |ddv_scf|^2 =  3.709E-09

      iter #   4 total cpu time :******** secs   av.it.:  20.5
      thresh= 6.090E-06 alpha_mix =  0.700 |ddv_scf|^2 =  1.157E-09

      iter #   5 total cpu time :******** secs   av.it.:  19.7
      thresh= 3.402E-06 alpha_mix =  0.700 |ddv_scf|^2 =  6.258E-12

      iter #   6 total cpu time :******** secs   av.it.:  20.3
      thresh= 2.502E-07 alpha_mix =  0.700 |ddv_scf|^2 =  2.020E-12

      iter #   7 total cpu time :******** secs   av.it.:  20.2
      thresh= 1.421E-07 alpha_mix =  0.700 |ddv_scf|^2 =  3.315E-13

      iter #   8 total cpu time :******** secs   av.it.:  19.9
      thresh= 5.758E-08 alpha_mix =  0.700 |ddv_scf|^2 =  3.230E-15

     End of self-consistent calculation

     Convergence has been achieved 

     Number of q in the star =    1
     List of q in the star:
          1   0.000000000   0.000000000   0.000000000

          Dielectric constant in cartesian axis 

          (       3.264022376      -0.014821905      -0.010136438 )
          (      -0.014821912       3.284556831      -0.005309129 )
          (      -0.010136189      -0.005308984       3.288693385 )

          Effective charges (d Force / dE) in cartesian axis without acoustic sum rule applied (asr)

           atom      1   O  Mean Z*:       -1.99236
      Ex  (       -1.85428        0.12779       -0.29418 )
      Ey  (        0.12779       -2.03132       -0.15409 )
      Ez  (       -0.20474       -0.10724       -2.09147 )
           atom      2   O  Mean Z*:       -1.99243
      Ex  (       -1.85435       -0.22779        0.22581 )
      Ey  (       -0.14444       -2.17200       -0.05250 )
      Ez  (        0.19336       -0.09935       -1.95095 )
           atom      3   O  Mean Z*:       -1.99243
      Ex  (       -1.85435       -0.22779        0.22581 )
      Ey  (       -0.14444       -2.17200       -0.05250 )
      Ez  (        0.19336       -0.09935       -1.95095 )
           atom      4   O  Mean Z*:       -1.99243
      Ex  (       -2.24323        0.12494        0.08543 )
      Ey  (        0.04159       -1.78310        0.21552 )
      Ez  (        0.02844        0.21553       -1.95095 )
           atom      5   O  Mean Z*:       -1.99243
      Ex  (       -2.24323        0.12494        0.08543 )
      Ey  (        0.04159       -1.78310        0.21552 )
      Ez  (        0.02844        0.21553       -1.95095 )
           atom      6   O  Mean Z*:       -1.99236
      Ex  (       -1.85428        0.12779       -0.29418 )
      Ey  (        0.12779       -2.03132       -0.15409 )
      Ez  (       -0.20474       -0.10724       -2.09147 )
           atom      7   Al Mean Z*:        2.98361
      Ex  (        2.97084       -0.02267        0.00618 )
      Ey  (       -0.00246        2.98824       -0.03271 )
      Ez  (       -0.02337        0.02371        2.99175 )
           atom      8   Al Mean Z*:        2.98361
      Ex  (        2.97084       -0.00246       -0.02337 )
      Ey  (       -0.02267        2.98824        0.02371 )
      Ez  (        0.00619       -0.03272        2.99175 )
           atom      9   Al Mean Z*:        2.98361
      Ex  (        2.97084       -0.00246       -0.02337 )
      Ey  (       -0.02267        2.98824        0.02371 )
      Ez  (        0.00619       -0.03272        2.99175 )
           atom     10   Al Mean Z*:        2.98361
      Ex  (        2.97084       -0.02267        0.00618 )
      Ey  (       -0.00246        2.98824       -0.03271 )
      Ez  (       -0.02337        0.02371        2.99175 )

          Effective charges Sum: Mean:       -0.02000
             -0.02039       -0.00038       -0.00025
             -0.00038       -0.01987       -0.00013
             -0.00024       -0.00013       -0.01976

          Effective charges (d Force / dE) in cartesian axis with asr applied: 
           atom      1   O  Mean Z*:       -1.99036
      E*x (       -1.85224        0.12782       -0.29416 )
      E*y (        0.12782       -2.02933       -0.15407 )
      E*z (       -0.20472       -0.10723       -2.08950 )
           atom      2   O  Mean Z*:       -1.99043
      E*x (       -1.85231       -0.22775        0.22584 )
      E*y (       -0.14440       -2.17001       -0.05249 )
      E*z (        0.19339       -0.09934       -1.94898 )
           atom      3   O  Mean Z*:       -1.99043
      E*x (       -1.85231       -0.22775        0.22584 )
      E*y (       -0.14440       -2.17001       -0.05249 )
      E*z (        0.19339       -0.09934       -1.94898 )
           atom      4   O  Mean Z*:       -1.99043
      E*x (       -2.24119        0.12498        0.08545 )
      E*y (        0.04163       -1.78111        0.21554 )
      E*z (        0.02846        0.21554       -1.94897 )
           atom      5   O  Mean Z*:       -1.99043
      E*x (       -2.24119        0.12498        0.08545 )
      E*y (        0.04163       -1.78111        0.21554 )
      E*z (        0.02846        0.21554       -1.94897 )
           atom      6   O  Mean Z*:       -1.99036
      E*x (       -1.85224        0.12782       -0.29416 )
      E*y (        0.12782       -2.02933       -0.15407 )
      E*z (       -0.20472       -0.10723       -2.08950 )
           atom      7   Al Mean Z*:        2.98561
      E*x (        2.97288       -0.02263        0.00621 )
      E*y (       -0.00242        2.99023       -0.03270 )
      E*z (       -0.02335        0.02373        2.99372 )
           atom      8   Al Mean Z*:        2.98561
      E*x (        2.97288       -0.00242       -0.02334 )
      E*y (       -0.02263        2.99023        0.02372 )
      E*z (        0.00621       -0.03270        2.99372 )
           atom      9   Al Mean Z*:        2.98561
      E*x (        2.97288       -0.00242       -0.02334 )
      E*y (       -0.02263        2.99023        0.02372 )
      E*z (        0.00621       -0.03270        2.99372 )
           atom     10   Al Mean Z*:        2.98561
      E*x (        2.97288       -0.02263        0.00621 )
      E*y (       -0.00242        2.99023       -0.03270 )
      E*z (       -0.02335        0.02373        2.99372 )

          Effective charges (d P / du) in cartesian axis 

           atom      1   O  
      Px  (       -1.85451        0.12788       -0.29441 )
      Py  (        0.12790       -2.03170       -0.15421 )
      Pz  (       -0.20483       -0.10727       -2.09173 )
           atom      2   O  
      Px  (       -1.85461       -0.22799        0.22602 )
      Py  (       -0.14450       -2.17232       -0.05258 )
      Pz  (        0.19349       -0.09951       -1.95125 )
           atom      3   O  
      Px  (       -1.85461       -0.22799        0.22602 )
      Py  (       -0.14450       -2.17232       -0.05258 )
      Pz  (        0.19349       -0.09951       -1.95125 )
           atom      4   O  
      Px  (       -2.24364        0.12503        0.08550 )
      Py  (        0.04157       -1.78325        0.21572 )
      Pz  (        0.02842        0.21572       -1.95125 )
           atom      5   O  
      Px  (       -2.24364        0.12503        0.08550 )
      Py  (        0.04157       -1.78325        0.21572 )
      Pz  (        0.02842        0.21572       -1.95125 )
           atom      6   O  
      Px  (       -1.85451        0.12788       -0.29441 )
      Py  (        0.12790       -2.03170       -0.15421 )
      Pz  (       -0.20483       -0.10727       -2.09173 )
           atom      7   Al 
      Px  (        2.97089       -0.02269        0.00619 )
      Py  (       -0.00247        2.98833       -0.03274 )
      Pz  (       -0.02339        0.02374        2.99184 )
           atom      8   Al 
      Px  (        2.97089       -0.00244       -0.02341 )
      Py  (       -0.02267        2.98832        0.02374 )
      Pz  (        0.00618       -0.03275        2.99183 )
           atom      9   Al 
      Px  (        2.97089       -0.00244       -0.02341 )
      Py  (       -0.02267        2.98832        0.02374 )
      Pz  (        0.00618       -0.03275        2.99183 )
           atom     10   Al 
      Px  (        2.97089       -0.02269        0.00619 )
      Py  (       -0.00247        2.98833       -0.03274 )
      Pz  (       -0.02339        0.02374        2.99184 )

     Diagonalizing the dynamical matrix

     q = (    0.000000000   0.000000000   0.000000000 ) 

 **************************************************************************
     freq (    1) =       0.278349 [THz] =       9.284710 [cm-1]
     freq (    2) =       0.316376 [THz] =      10.553184 [cm-1]
     freq (    3) =       0.325527 [THz] =      10.858420 [cm-1]
     freq (    4) =       8.489975 [THz] =     283.195086 [cm-1]
     freq (    5) =      10.645628 [THz] =     355.099934 [cm-1]
     freq (    6) =      10.652431 [THz] =     355.326844 [cm-1]
     freq (    7) =      10.782076 [THz] =     359.651358 [cm-1]
     freq (    8) =      10.785328 [THz] =     359.759832 [cm-1]
     freq (    9) =      11.046017 [THz] =     368.455451 [cm-1]
     freq (   10) =      11.708890 [THz] =     390.566528 [cm-1]
     freq (   11) =      12.029209 [THz] =     401.251214 [cm-1]
     freq (   12) =      12.033306 [THz] =     401.387873 [cm-1]
     freq (   13) =      12.489541 [THz] =     416.606234 [cm-1]
     freq (   14) =      12.493260 [THz] =     416.730288 [cm-1]
     freq (   15) =      12.745094 [THz] =     425.130563 [cm-1]
     freq (   16) =      12.746924 [THz] =     425.191627 [cm-1]
     freq (   17) =      15.297665 [THz] =     510.275175 [cm-1]
     freq (   18) =      16.145834 [THz] =     538.567050 [cm-1]
     freq (   19) =      16.152740 [THz] =     538.797397 [cm-1]
     freq (   20) =      16.569124 [THz] =     552.686474 [cm-1]
     freq (   21) =      16.571418 [THz] =     552.762990 [cm-1]
     freq (   22) =      16.602439 [THz] =     553.797738 [cm-1]
     freq (   23) =      17.019378 [THz] =     567.705328 [cm-1]
     freq (   24) =      18.097431 [THz] =     603.665305 [cm-1]
     freq (   25) =      18.100790 [THz] =     603.777373 [cm-1]
     freq (   26) =      18.160070 [THz] =     605.754745 [cm-1]
     freq (   27) =      19.831531 [THz] =     661.508679 [cm-1]
     freq (   28) =      21.435267 [THz] =     715.003546 [cm-1]
     freq (   29) =      21.449877 [THz] =     715.490872 [cm-1]
     freq (   30) =      21.562830 [THz] =     719.258602 [cm-1]
 **************************************************************************

     Mode symmetry, C_i (-1)    point group:

     freq (   1-   1) =          9.3  [cm-1]   --> A_u             I  
     freq (   2-   2) =         10.6  [cm-1]   --> A_u             I  
     freq (   3-   3) =         10.9  [cm-1]   --> A_u             I  
     freq (   4-   4) =        283.2  [cm-1]   --> A_g             R  
     freq (   5-   5) =        355.1  [cm-1]   --> A_g             R  
     freq (   6-   6) =        355.3  [cm-1]   --> A_g             R  
     freq (   7-   7) =        359.7  [cm-1]   --> A_u             I  
     freq (   8-   8) =        359.8  [cm-1]   --> A_u             I  
     freq (   9-   9) =        368.5  [cm-1]   --> A_u             I  
     freq (  10-  10) =        390.6  [cm-1]   --> A_g             R  
     freq (  11-  11) =        401.3  [cm-1]   --> A_g             R  
     freq (  12-  12) =        401.4  [cm-1]   --> A_g             R  
     freq (  13-  13) =        416.6  [cm-1]   --> A_u             I  
     freq (  14-  14) =        416.7  [cm-1]   --> A_u             I  
     freq (  15-  15) =        425.1  [cm-1]   --> A_g             R  
     freq (  16-  16) =        425.2  [cm-1]   --> A_g             R  
     freq (  17-  17) =        510.3  [cm-1]   --> A_g             R  
     freq (  18-  18) =        538.6  [cm-1]   --> A_u             I  
     freq (  19-  19) =        538.8  [cm-1]   --> A_u             I  
     freq (  20-  20) =        552.7  [cm-1]   --> A_g             R  
     freq (  21-  21) =        552.8  [cm-1]   --> A_g             R  
     freq (  22-  22) =        553.8  [cm-1]   --> A_u             I  
     freq (  23-  23) =        567.7  [cm-1]   --> A_u             I  
     freq (  24-  24) =        603.7  [cm-1]   --> A_u             I  
     freq (  25-  25) =        603.8  [cm-1]   --> A_u             I  
     freq (  26-  26) =        605.8  [cm-1]   --> A_g             R  
     freq (  27-  27) =        661.5  [cm-1]   --> A_u             I  
     freq (  28-  28) =        715.0  [cm-1]   --> A_g             R  
     freq (  29-  29) =        715.5  [cm-1]   --> A_g             R  
     freq (  30-  30) =        719.3  [cm-1]   --> A_g             R  

     Calculation of q =   -0.0005088  -0.0002665  -0.6514840

     Subspace diagonalization in iterative solution of the eigenvalue problem:
     one sub-group per band group will be used
     scalapack distributed-memory algorithm (size of sub-group:  4*  4 procs)


     Parallelization info
     --------------------
     sticks:   dense  smooth     PW     G-vecs:    dense   smooth      PW
     Min         201     100     31                 8134     2871     512
     Max         202     101     32                 8137     2873     517
     Sum        4037    2009    633               162715    57437   10293

     Using Slab Decomposition


     Title: 
     Al2O3 phonon grid                                                          


     bravais-lattice index     =            0
     lattice parameter (alat)  =       9.8018  a.u.
     unit-cell volume          =     595.0557 (a.u.)^3
     number of atoms/cell      =           10
     number of atomic types    =            2
     number of electrons       =        48.00
     number of Kohn-Sham states=           24
     kinetic-energy cutoff     =      80.0000  Ry
     charge density cutoff     =     640.0000  Ry
     Exchange-correlation= PBE
                           (   1   4   3   4   0   0   0)

     celldm(1)=   9.801767  celldm(2)=   0.000000  celldm(3)=   0.000000
     celldm(4)=   0.000000  celldm(5)=   0.000000  celldm(6)=   0.000000

     crystal axes: (cart. coord. in units of alat)
               a(1) = (   0.999999  -0.001141  -0.000781 )  
               a(2) = (   0.568490   0.822690  -0.000781 )  
               a(3) = (   0.568490   0.297766   0.766913 )  

     reciprocal axes: (cart. coord. in units 2 pi/alat)
               b(1) = (  0.998844 -0.690662 -0.472253 )  
               b(2) = (  0.001018  1.214373 -0.472253 )  
               b(3) = (  0.001018  0.000533  1.302968 )  


     PseudoPot. # 1 for O  read from file:
     ./pseudo/O.pbe-n-kjpaw_psl.1.0.0.UPF
     MD5 check sum: e99d9cef9b487d1ca56f5b95ecd0fd7a
     Pseudo is Projector augmented-wave + core cor, Zval =  6.0
     Generated using &quot;atomic&quot; code by A. Dal Corso  v.6.3
     Shape of augmentation charge: PSQ
     Using radial grid of 1095 points,  4 beta functions with: 
                l(1) =   0
                l(2) =   0
                l(3) =   1
                l(4) =   1
     Q(r) pseudized with 0 coefficients 


     PseudoPot. # 2 for Al read from file:
     ./pseudo/Al.pbe-n-kjpaw_psl.1.0.0.UPF
     MD5 check sum: 502b6b27b9c6270cab5dd1084b96fa6d
     Pseudo is Projector augmented-wave + core cor, Zval =  3.0
     Generated using &quot;atomic&quot; code by A. Dal Corso  v.6.3
     Shape of augmentation charge: PSQ
     Using radial grid of 1135 points,  6 beta functions with: 
                l(1) =   0
                l(2) =   0
                l(3) =   1
                l(4) =   1
                l(5) =   2
                l(6) =   2
     Q(r) pseudized with 0 coefficients 


     atomic species   valence    mass     pseudopotential
        O              6.00    15.99900     O ( 1.00)
        Al             3.00    26.98200     Al( 1.00)

      2 Sym. Ops., with inversion, found



   Cartesian axes

     site n.     atom                  positions (alat units)
         1           O   tau(   1) = (   1.4022707   0.5306478   0.1905574  )
         2           O   tau(   2) = (   0.9022712   0.6331378   0.0418925  )
         3           O   tau(   3) = (   1.2347071   0.4861763   0.7234593  )
         4           O   tau(   4) = (   1.1027342   0.9419756   0.4253488  )
         5           O   tau(   5) = (   1.0342441   0.1773385   0.3400029  )
         6           O   tau(   6) = (   0.7347076   0.5886663   0.5747943  )
         7           Al  tau(   7) = (   0.3142958   0.1646230   0.1125640  )
         8           Al  tau(   8) = (   0.7541934   0.3950341   0.2701119  )
         9           Al  tau(   9) = (   1.3827850   0.7242800   0.4952399  )
        10           Al  tau(  10) = (   1.8226826   0.9546911   0.6527878  )

     number of k points=  1736

     Number of k-points >= 100: set verbosity='high' to print them.

     Dense  grid:   162715 G-vectors     FFT dimensions: (  80,  80,  80)

     Smooth grid:    57437 G-vectors     FFT dimensions: (  60,  60,  60)

     Estimated max dynamical RAM per process >      31.92 MB

     Estimated total dynamical RAM >     638.30 MB

     The potential is recalculated from file :
     ./tmp/_ph0/Al2O3-Bands.save/charge-density

     Starting wfcs are   40 atomic wfcs
     Checking if some PAW data can be deallocated... 

     Band Structure Calculation
     Davidson diagonalization with overlap

     ethr =  2.08E-11,  avg # of iterations = 14.8

     total cpu time spent up to now is      325.4 secs

     End of band structure calculation

     Number of k-points >= 100: set verbosity='high' to print the bands.

     highest occupied level (ev):     7.2707

     Writing config to output data dir ./tmp/_ph0/Al2O3-Bands.save/

     Al2O3 phonon grid                                                          

     bravais-lattice index     =            0
     lattice parameter (alat)  =       9.8018  a.u.
     unit-cell volume          =     595.0557 (a.u.)^3
     number of atoms/cell      =           10
     number of atomic types    =            2
     kinetic-energy cut-off    =      80.0000  Ry
     charge density cut-off    =     640.0000  Ry
     convergence threshold     =      1.0E-14
     beta                      =       0.7000
     number of iterations used =            4
     Exchange-correlation= PBE
                           (   1   4   3   4   0   0   0)


     celldm(1)=    9.80177  celldm(2)=    0.00000  celldm(3)=    0.00000
     celldm(4)=    0.00000  celldm(5)=    0.00000  celldm(6)=    0.00000

     crystal axes: (cart. coord. in units of alat)
               a(1) = (  1.0000 -0.0011 -0.0008 )  
               a(2) = (  0.5685  0.8227 -0.0008 )  
               a(3) = (  0.5685  0.2978  0.7669 )  

     reciprocal axes: (cart. coord. in units 2 pi/alat)
               b(1) = (  0.9988 -0.6907 -0.4723 )  
               b(2) = (  0.0010  1.2144 -0.4723 )  
               b(3) = (  0.0010  0.0005  1.3030 )  


     Atoms inside the unit cell: 

     Cartesian axes

     site n.  atom      mass           positions (alat units)
        1     O   15.9990   tau(    1) = (    1.40227    0.53065    0.19056  )
        2     O   15.9990   tau(    2) = (    0.90227    0.63314    0.04189  )
        3     O   15.9990   tau(    3) = (    1.23471    0.48618    0.72346  )
        4     O   15.9990   tau(    4) = (    1.10273    0.94198    0.42535  )
        5     O   15.9990   tau(    5) = (    1.03424    0.17734    0.34000  )
        6     O   15.9990   tau(    6) = (    0.73471    0.58867    0.57479  )
        7     Al  26.9820   tau(    7) = (    0.31430    0.16462    0.11256  )
        8     Al  26.9820   tau(    8) = (    0.75419    0.39503    0.27011  )
        9     Al  26.9820   tau(    9) = (    1.38278    0.72428    0.49524  )
       10     Al  26.9820   tau(   10) = (    1.82268    0.95469    0.65279  )

     Computing dynamical matrix for 
                    q = (  -0.0005088  -0.0002665  -0.6514840 )

      3 Sym.Ops. (with q -> -q+G )


     G cutoff = 1557.5032  (   8136 G-vectors)     FFT grid: ( 80, 80, 80)
     G cutoff =  778.7516  (   2873 G-vectors)  smooth grid: ( 60, 60, 60)
     number of k points=  1736

     PseudoPot. # 1 for O  read from file:
     ./pseudo/O.pbe-n-kjpaw_psl.1.0.0.UPF
     MD5 check sum: e99d9cef9b487d1ca56f5b95ecd0fd7a
     Pseudo is Projector augmented-wave + core cor, Zval =  6.0
     Generated using &quot;atomic&quot; code by A. Dal Corso  v.6.3
     Shape of augmentation charge: PSQ
     Using radial grid of 1095 points,  4 beta functions with: 
                l(1) =   0
                l(2) =   0
                l(3) =   1
                l(4) =   1
     Q(r) pseudized with 0 coefficients 


     PseudoPot. # 2 for Al read from file:
     ./pseudo/Al.pbe-n-kjpaw_psl.1.0.0.UPF
     MD5 check sum: 502b6b27b9c6270cab5dd1084b96fa6d
     Pseudo is Projector augmented-wave + core cor, Zval =  3.0
     Generated using &quot;atomic&quot; code by A. Dal Corso  v.6.3
     Shape of augmentation charge: PSQ
     Using radial grid of 1135 points,  6 beta functions with: 
                l(1) =   0
                l(2) =   0
                l(3) =   1
                l(4) =   1
                l(5) =   2
                l(6) =   2
     Q(r) pseudized with 0 coefficients 


     Mode symmetry, C_i (-1)    point group:


     Atomic displacements:
     There are   30 irreducible representations

     Representation     1      1 modes -  To be done

     Representation     2      1 modes -  To be done

     Representation     3      1 modes -  To be done

     Representation     4      1 modes -  To be done

     Representation     5      1 modes -  To be done

     Representation     6      1 modes -  To be done

     Representation     7      1 modes -  To be done

     Representation     8      1 modes -  To be done

     Representation     9      1 modes -  To be done

     Representation    10      1 modes -  To be done

     Representation    11      1 modes -  To be done

     Representation    12      1 modes -  To be done

     Representation    13      1 modes -  To be done

     Representation    14      1 modes -  To be done

     Representation    15      1 modes -  To be done

     Representation    16      1 modes -  To be done

     Representation    17      1 modes -  To be done

     Representation    18      1 modes -  To be done

     Representation    19      1 modes -  To be done

     Representation    20      1 modes -  To be done

     Representation    21      1 modes -  To be done

     Representation    22      1 modes -  To be done

     Representation    23      1 modes -  To be done

     Representation    24      1 modes -  To be done

     Representation    25      1 modes -  To be done

     Representation    26      1 modes -  To be done

     Representation    27      1 modes -  To be done

     Representation    28      1 modes -  To be done

     Representation    29      1 modes -  To be done

     Representation    30      1 modes -  To be done



     Alpha used in Ewald sum =   2.8000
     PHONON       :  13d 3h 4m CPU  14d22h 2m WALL



     Representation #   1 mode #   1

     Self-consistent Calculation

      iter #   1 total cpu time :******** secs   av.it.:   8.2
      thresh= 1.000E-02 alpha_mix =  0.700 |ddv_scf|^2 =  2.220E-07

      iter #   2 total cpu time :******** secs   av.it.:  19.6
      thresh= 4.712E-05 alpha_mix =  0.700 |ddv_scf|^2 =  2.591E-07

      iter #   3 total cpu time :******** secs   av.it.:  18.3
      thresh= 5.091E-05 alpha_mix =  0.700 |ddv_scf|^2 =  1.048E-09

      iter #   4 total cpu time :******** secs   av.it.:  20.2
      thresh= 3.237E-06 alpha_mix =  0.700 |ddv_scf|^2 =  1.283E-10

      iter #   5 total cpu time :******** secs   av.it.:  20.2
      thresh= 1.133E-06 alpha_mix =  0.700 |ddv_scf|^2 =  6.557E-12

      iter #   6 total cpu time :******** secs   av.it.:  20.4
      thresh= 2.561E-07 alpha_mix =  0.700 |ddv_scf|^2 =  1.394E-12

      iter #   7 total cpu time :******** secs   av.it.:  20.3
      thresh= 1.181E-07 alpha_mix =  0.700 |ddv_scf|^2 =  5.203E-14

      iter #   8 total cpu time :******** secs   av.it.:  20.3
      thresh= 2.281E-08 alpha_mix =  0.700 |ddv_scf|^2 =  3.314E-15

     End of self-consistent calculation

     Convergence has been achieved 


     Representation #   2 mode #   2

     Self-consistent Calculation

      iter #   1 total cpu time :******** secs   av.it.:  10.5
      thresh= 1.000E-02 alpha_mix =  0.700 |ddv_scf|^2 =  5.752E-07

      iter #   2 total cpu time :******** secs   av.it.:  20.0
      thresh= 7.584E-05 alpha_mix =  0.700 |ddv_scf|^2 =  2.268E-07

      iter #   3 total cpu time :******** secs   av.it.:  18.5
      thresh= 4.762E-05 alpha_mix =  0.700 |ddv_scf|^2 =  1.674E-08

      iter #   4 total cpu time :******** secs   av.it.:  19.4
      thresh= 1.294E-05 alpha_mix =  0.700 |ddv_scf|^2 =  7.726E-10

      iter #   5 total cpu time :******** secs   av.it.:  20.0
      thresh= 2.780E-06 alpha_mix =  0.700 |ddv_scf|^2 =  1.538E-11

      iter #   6 total cpu time :******** secs   av.it.:  20.6
      thresh= 3.921E-07 alpha_mix =  0.700 |ddv_scf|^2 =  1.976E-12

      iter #   7 total cpu time :******** secs   av.it.:  20.2
      thresh= 1.406E-07 alpha_mix =  0.700 |ddv_scf|^2 =  2.969E-13

      iter #   8 total cpu time :******** secs   av.it.:  20.6
      thresh= 5.449E-08 alpha_mix =  0.700 |ddv_scf|^2 =  9.119E-14

      iter #   9 total cpu time :******** secs   av.it.:  20.0
      thresh= 3.020E-08 alpha_mix =  0.700 |ddv_scf|^2 =  2.612E-15

     End of self-consistent calculation

     Convergence has been achieved 


     Representation #   3 mode #   3

     Self-consistent Calculation

      iter #   1 total cpu time :******** secs   av.it.:  11.0
      thresh= 1.000E-02 alpha_mix =  0.700 |ddv_scf|^2 =  3.374E-06

      iter #   2 total cpu time :******** secs   av.it.:  19.4
      thresh= 1.837E-04 alpha_mix =  0.700 |ddv_scf|^2 =  3.159E-06

      iter #   3 total cpu time :******** secs   av.it.:  17.9
      thresh= 1.777E-04 alpha_mix =  0.700 |ddv_scf|^2 =  1.174E-08

      iter #   4 total cpu time :******** secs   av.it.:  20.8
      thresh= 1.084E-05 alpha_mix =  0.700 |ddv_scf|^2 =  5.631E-09

      iter #   5 total cpu time :******** secs   av.it.:  19.6
      thresh= 7.504E-06 alpha_mix =  0.700 |ddv_scf|^2 =  4.007E-11

      iter #   6 total cpu time :******** secs   av.it.:  19.9
      thresh= 6.330E-07 alpha_mix =  0.700 |ddv_scf|^2 =  7.825E-12

      iter #   7 total cpu time :******** secs   av.it.:  20.1
      thresh= 2.797E-07 alpha_mix =  0.700 |ddv_scf|^2 =  3.129E-13

      iter #   8 total cpu time :******** secs   av.it.:  20.1
      thresh= 5.593E-08 alpha_mix =  0.700 |ddv_scf|^2 =  1.434E-14

      iter #   9 total cpu time :******** secs   av.it.:  20.4
      thresh= 1.198E-08 alpha_mix =  0.700 |ddv_scf|^2 =  3.930E-15

     End of self-consistent calculation

     Convergence has been achieved 


     Representation #   4 mode #   4

     Self-consistent Calculation

      iter #   1 total cpu time :******** secs   av.it.:   8.0
      thresh= 1.000E-02 alpha_mix =  0.700 |ddv_scf|^2 =  6.167E-08

      iter #   2 total cpu time :******** secs   av.it.:  20.1
      thresh= 2.483E-05 alpha_mix =  0.700 |ddv_scf|^2 =  6.373E-08

      iter #   3 total cpu time :******** secs   av.it.:  18.9
      thresh= 2.524E-05 alpha_mix =  0.700 |ddv_scf|^2 =  7.356E-10

      iter #   4 total cpu time :******** secs   av.it.:  19.8
      thresh= 2.712E-06 alpha_mix =  0.700 |ddv_scf|^2 =  3.212E-11

      iter #   5 total cpu time :******** secs   av.it.:  20.3
      thresh= 5.667E-07 alpha_mix =  0.700 |ddv_scf|^2 =  1.252E-12

      iter #   6 total cpu time :******** secs   av.it.:  20.9
      thresh= 1.119E-07 alpha_mix =  0.700 |ddv_scf|^2 =  4.573E-13

      iter #   7 total cpu time :******** secs   av.it.:  19.8
      thresh= 6.762E-08 alpha_mix =  0.700 |ddv_scf|^2 =  3.861E-15

     End of self-consistent calculation

     Convergence has been achieved 


     Representation #   5 mode #   5

     Self-consistent Calculation

      iter #   1 total cpu time :******** secs   av.it.:  10.6
      thresh= 1.000E-02 alpha_mix =  0.700 |ddv_scf|^2 =  9.169E-07

      iter #   2 total cpu time :******** secs   av.it.:  19.7
      thresh= 9.575E-05 alpha_mix =  0.700 |ddv_scf|^2 =  7.146E-07

      iter #   3 total cpu time :******** secs   av.it.:  18.0
      thresh= 8.454E-05 alpha_mix =  0.700 |ddv_scf|^2 =  7.581E-09

      iter #   4 total cpu time :******** secs   av.it.:  20.3
      thresh= 8.707E-06 alpha_mix =  0.700 |ddv_scf|^2 =  1.958E-09

      iter #   5 total cpu time :******** secs   av.it.:  19.9
      thresh= 4.425E-06 alpha_mix =  0.700 |ddv_scf|^2 =  1.272E-11

      iter #   6 total cpu time :******** secs   av.it.:  20.6
      thresh= 3.567E-07 alpha_mix =  0.700 |ddv_scf|^2 =  2.070E-12

      iter #   7 total cpu time :******** secs   av.it.:  20.4
      thresh= 1.439E-07 alpha_mix =  0.700 |ddv_scf|^2 =  6.121E-13

      iter #   8 total cpu time :******** secs   av.it.:  20.1
      thresh= 7.823E-08 alpha_mix =  0.700 |ddv_scf|^2 =  2.477E-14

      iter #   9 total cpu time :******** secs   av.it.:  20.5
      thresh= 1.574E-08 alpha_mix =  0.700 |ddv_scf|^2 =  4.965E-15

     End of self-consistent calculation

     Convergence has been achieved 


     Representation #   6 mode #   6

     Self-consistent Calculation

      iter #   1 total cpu time :******** secs   av.it.:  10.9
      thresh= 1.000E-02 alpha_mix =  0.700 |ddv_scf|^2 =  1.062E-06

      iter #   2 total cpu time :******** secs   av.it.:  20.0
      thresh= 1.030E-04 alpha_mix =  0.700 |ddv_scf|^2 =  2.229E-07

      iter #   3 total cpu time :******** secs   av.it.:  19.6
      thresh= 4.721E-05 alpha_mix =  0.700 |ddv_scf|^2 =  7.602E-09

      iter #   4 total cpu time :******** secs   av.it.:  20.5
      thresh= 8.719E-06 alpha_mix =  0.700 |ddv_scf|^2 =  1.648E-09

      iter #   5 total cpu time :******** secs   av.it.:  19.7
      thresh= 4.059E-06 alpha_mix =  0.700 |ddv_scf|^2 =  2.647E-11

      iter #   6 total cpu time :******** secs   av.it.:  18.7
      thresh= 5.144E-07 alpha_mix =  0.700 |ddv_scf|^2 =  3.370E-12

      iter #   7 total cpu time :******** secs   av.it.:  19.5
      thresh= 1.836E-07 alpha_mix =  0.700 |ddv_scf|^2 =  4.279E-13

      iter #   8 total cpu time :******** secs   av.it.:  19.8
      thresh= 6.541E-08 alpha_mix =  0.700 |ddv_scf|^2 =  3.752E-14

      iter #   9 total cpu time :******** secs   av.it.:  20.6
      thresh= 1.937E-08 alpha_mix =  0.700 |ddv_scf|^2 =  1.126E-14

      iter #  10 total cpu time :******** secs   av.it.:  20.2
      thresh= 1.061E-08 alpha_mix =  0.700 |ddv_scf|^2 =  6.595E-16

     End of self-consistent calculation

     Convergence has been achieved 


     Representation #   7 mode #   7

     Self-consistent Calculation

      iter #   1 total cpu time :******** secs   av.it.:   8.0
      thresh= 1.000E-02 alpha_mix =  0.700 |ddv_scf|^2 =  6.858E-08

      iter #   2 total cpu time :******** secs   av.it.:  20.1
      thresh= 2.619E-05 alpha_mix =  0.700 |ddv_scf|^2 =  7.835E-08

      iter #   3 total cpu time :******** secs   av.it.:  19.0
      thresh= 2.799E-05 alpha_mix =  0.700 |ddv_scf|^2 =  4.898E-10

      iter #   4 total cpu time :******** secs   av.it.:  20.4
      thresh= 2.213E-06 alpha_mix =  0.700 |ddv_scf|^2 =  1.014E-10

      iter #   5 total cpu time :******** secs   av.it.:  20.1
      thresh= 1.007E-06 alpha_mix =  0.700 |ddv_scf|^2 =  3.539E-12

      iter #   6 total cpu time :******** secs   av.it.:  20.3
      thresh= 1.881E-07 alpha_mix =  0.700 |ddv_scf|^2 =  9.117E-13

      iter #   7 total cpu time :******** secs   av.it.:  20.1
      thresh= 9.548E-08 alpha_mix =  0.700 |ddv_scf|^2 =  1.353E-14

      iter #   8 total cpu time :******** secs   av.it.:  20.0
      thresh= 1.163E-08 alpha_mix =  0.700 |ddv_scf|^2 =  1.161E-15

     End of self-consistent calculation

     Convergence has been achieved 


     Representation #   8 mode #   8

     Self-consistent Calculation

      iter #   1 total cpu time :******** secs   av.it.:   7.8
      thresh= 1.000E-02 alpha_mix =  0.700 |ddv_scf|^2 =  2.124E-08

      iter #   2 total cpu time :******** secs   av.it.:  20.6
      thresh= 1.457E-05 alpha_mix =  0.700 |ddv_scf|^2 =  1.336E-08

      iter #   3 total cpu time :******** secs   av.it.:  20.2
[...]
      thresh= 3.752E-07 alpha_mix =  0.700 |ddv_scf|^2 =  1.144E-12

      iter #   7 total cpu time :******** secs   av.it.:  20.4
      thresh= 1.070E-07 alpha_mix =  0.700 |ddv_scf|^2 =  4.771E-13

      iter #   8 total cpu time :******** secs   av.it.:  20.2
      thresh= 6.907E-08 alpha_mix =  0.700 |ddv_scf|^2 =  3.089E-14

      iter #   9 total cpu time :******** secs   av.it.:  20.1
      thresh= 1.758E-08 alpha_mix =  0.700 |ddv_scf|^2 =  9.101E-16

     End of self-consistent calculation

     Convergence has been achieved 


     Representation #  24 mode #  24

     Self-consistent Calculation

      iter #   1 total cpu time :******** secs   av.it.:   8.5
      thresh= 1.000E-02 alpha_mix =  0.700 |ddv_scf|^2 =  4.088E-07

      iter #   2 total cpu time :******** secs   av.it.:  19.3
      thresh= 6.393E-05 alpha_mix =  0.700 |ddv_scf|^2 =  4.809E-07

      iter #   3 total cpu time :******** secs   av.it.:  18.0
      thresh= 6.935E-05 alpha_mix =  0.700 |ddv_scf|^2 =  1.325E-09

      iter #   4 total cpu time :******** secs   av.it.:  20.1
      thresh= 3.640E-06 alpha_mix =  0.700 |ddv_scf|^2 =  1.371E-10

      iter #   5 total cpu time :******** secs   av.it.:  20.1
      thresh= 1.171E-06 alpha_mix =  0.700 |ddv_scf|^2 =  3.329E-12

      iter #   6 total cpu time :******** secs   av.it.:  20.1
      thresh= 1.825E-07 alpha_mix =  0.700 |ddv_scf|^2 =  9.686E-13

      iter #   7 total cpu time :******** secs   av.it.:  20.0
      thresh= 9.842E-08 alpha_mix =  0.700 |ddv_scf|^2 =  1.924E-14

      iter #   8 total cpu time :******** secs   av.it.:  20.1
      thresh= 1.387E-08 alpha_mix =  0.700 |ddv_scf|^2 =  6.447E-16

     End of self-consistent calculation

     Convergence has been achieved 


     Representation #  25 mode #  25

     Self-consistent Calculation

      iter #   1 total cpu time :******** secs   av.it.:  11.0
      thresh= 1.000E-02 alpha_mix =  0.700 |ddv_scf|^2 =  2.968E-06

      iter #   2 total cpu time :******** secs   av.it.:  19.4
      thresh= 1.723E-04 alpha_mix =  0.700 |ddv_scf|^2 =  2.812E-06

      iter #   3 total cpu time :******** secs   av.it.:  17.6
      thresh= 1.677E-04 alpha_mix =  0.700 |ddv_scf|^2 =  1.074E-08

      iter #   4 total cpu time :******** secs   av.it.:  20.5
      thresh= 1.036E-05 alpha_mix =  0.700 |ddv_scf|^2 =  3.581E-09

      iter #   5 total cpu time :******** secs   av.it.:  19.7
      thresh= 5.984E-06 alpha_mix =  0.700 |ddv_scf|^2 =  1.363E-11

      iter #   6 total cpu time :******** secs   av.it.:  20.5
      thresh= 3.692E-07 alpha_mix =  0.700 |ddv_scf|^2 =  2.012E-12

      iter #   7 total cpu time :******** secs   av.it.:  20.4
      thresh= 1.418E-07 alpha_mix =  0.700 |ddv_scf|^2 =  6.381E-13

      iter #   8 total cpu time :******** secs   av.it.:  20.2
      thresh= 7.988E-08 alpha_mix =  0.700 |ddv_scf|^2 =  3.491E-14

      iter #   9 total cpu time :******** secs   av.it.:  19.9
      thresh= 1.868E-08 alpha_mix =  0.700 |ddv_scf|^2 =  1.466E-15

     End of self-consistent calculation

     Convergence has been achieved 


     Representation #  26 mode #  26

     Self-consistent Calculation

      iter #   1 total cpu time :******** secs   av.it.:  11.0
      thresh= 1.000E-02 alpha_mix =  0.700 |ddv_scf|^2 =  3.687E-06

      iter #   2 total cpu time :******** secs   av.it.:  19.3
      thresh= 1.920E-04 alpha_mix =  0.700 |ddv_scf|^2 =  3.777E-06

      iter #   3 total cpu time :******** secs   av.it.:  17.5
      thresh= 1.943E-04 alpha_mix =  0.700 |ddv_scf|^2 =  7.465E-09

      iter #   4 total cpu time :******** secs   av.it.:  21.0
      thresh= 8.640E-06 alpha_mix =  0.700 |ddv_scf|^2 =  4.638E-09

      iter #   5 total cpu time :******** secs   av.it.:  19.6
      thresh= 6.810E-06 alpha_mix =  0.700 |ddv_scf|^2 =  8.741E-12

      iter #   6 total cpu time :******** secs   av.it.:  20.2
      thresh= 2.957E-07 alpha_mix =  0.700 |ddv_scf|^2 =  1.369E-12

      iter #   7 total cpu time :******** secs   av.it.:  20.6
      thresh= 1.170E-07 alpha_mix =  0.700 |ddv_scf|^2 =  6.798E-13

      iter #   8 total cpu time :******** secs   av.it.:  20.2
      thresh= 8.245E-08 alpha_mix =  0.700 |ddv_scf|^2 =  1.992E-14

      iter #   9 total cpu time :******** secs   av.it.:  20.3
      thresh= 1.411E-08 alpha_mix =  0.700 |ddv_scf|^2 =  1.302E-16

     End of self-consistent calculation

     Convergence has been achieved 


     Representation #  27 mode #  27

     Self-consistent Calculation

      iter #   1 total cpu time :******** secs   av.it.:  10.9
      thresh= 1.000E-02 alpha_mix =  0.700 |ddv_scf|^2 =  9.297E-07

      iter #   2 total cpu time :******** secs   av.it.:  19.8
      thresh= 9.642E-05 alpha_mix =  0.700 |ddv_scf|^2 =  4.310E-07

      iter #   3 total cpu time :******** secs   av.it.:  18.4
      thresh= 6.565E-05 alpha_mix =  0.700 |ddv_scf|^2 =  2.169E-08

      iter #   4 total cpu time :******** secs   av.it.:  19.4
      thresh= 1.473E-05 alpha_mix =  0.700 |ddv_scf|^2 =  8.325E-10

      iter #   5 total cpu time :******** secs   av.it.:  20.0
      thresh= 2.885E-06 alpha_mix =  0.700 |ddv_scf|^2 =  5.102E-11

      iter #   6 total cpu time :******** secs   av.it.:  20.4
      thresh= 7.142E-07 alpha_mix =  0.700 |ddv_scf|^2 =  2.542E-12

      iter #   7 total cpu time :******** secs   av.it.:  20.4
      thresh= 1.594E-07 alpha_mix =  0.700 |ddv_scf|^2 =  7.005E-13

      iter #   8 total cpu time :******** secs   av.it.:  20.2
      thresh= 8.370E-08 alpha_mix =  0.700 |ddv_scf|^2 =  6.226E-14

      iter #   9 total cpu time :******** secs   av.it.:  19.5
      thresh= 2.495E-08 alpha_mix =  0.700 |ddv_scf|^2 =  2.719E-15

     End of self-consistent calculation

     Convergence has been achieved 


     Representation #  28 mode #  28

     Self-consistent Calculation

      iter #   1 total cpu time :******** secs   av.it.:   7.0
      thresh= 1.000E-02 alpha_mix =  0.700 |ddv_scf|^2 =  8.282E-09

      iter #   2 total cpu time :******** secs   av.it.:  20.9
      thresh= 9.100E-06 alpha_mix =  0.700 |ddv_scf|^2 =  6.384E-09

      iter #   3 total cpu time :******** secs   av.it.:  20.2
      thresh= 7.990E-06 alpha_mix =  0.700 |ddv_scf|^2 =  5.133E-10

      iter #   4 total cpu time :******** secs   av.it.:  20.0
      thresh= 2.266E-06 alpha_mix =  0.700 |ddv_scf|^2 =  1.150E-11

      iter #   5 total cpu time :******** secs   av.it.:  19.8
      thresh= 3.391E-07 alpha_mix =  0.700 |ddv_scf|^2 =  2.271E-12

      iter #   6 total cpu time :******** secs   av.it.:  18.2
      thresh= 1.507E-07 alpha_mix =  0.700 |ddv_scf|^2 =  8.306E-14

      iter #   7 total cpu time :******** secs   av.it.:  19.9
      thresh= 2.882E-08 alpha_mix =  0.700 |ddv_scf|^2 =  9.706E-15

     End of self-consistent calculation

     Convergence has been achieved 


     Representation #  29 mode #  29

     Self-consistent Calculation

      iter #   1 total cpu time :******** secs   av.it.:   8.0
      thresh= 1.000E-02 alpha_mix =  0.700 |ddv_scf|^2 =  2.548E-08

      iter #   2 total cpu time :******** secs   av.it.:  20.8
      thresh= 1.596E-05 alpha_mix =  0.700 |ddv_scf|^2 =  2.282E-08

      iter #   3 total cpu time :******** secs   av.it.:  20.1
      thresh= 1.510E-05 alpha_mix =  0.700 |ddv_scf|^2 =  9.597E-10

      iter #   4 total cpu time :******** secs   av.it.:  20.1
      thresh= 3.098E-06 alpha_mix =  0.700 |ddv_scf|^2 =  2.186E-11

      iter #   5 total cpu time :******** secs   av.it.:  19.8
      thresh= 4.675E-07 alpha_mix =  0.700 |ddv_scf|^2 =  6.767E-12

      iter #   6 total cpu time :******** secs   av.it.:  17.9
      thresh= 2.601E-07 alpha_mix =  0.700 |ddv_scf|^2 =  1.421E-13

      iter #   7 total cpu time :******** secs   av.it.:  20.3
      thresh= 3.769E-08 alpha_mix =  0.700 |ddv_scf|^2 =  3.884E-14

      iter #   8 total cpu time :******** secs   av.it.:  20.2
      thresh= 1.971E-08 alpha_mix =  0.700 |ddv_scf|^2 =  3.741E-15

     End of self-consistent calculation

     Convergence has been achieved 


     Representation #  30 mode #  30

     Self-consistent Calculation

      iter #   1 total cpu time :******** secs   av.it.:  10.9
      thresh= 1.000E-02 alpha_mix =  0.700 |ddv_scf|^2 =  7.194E-07

      iter #   2 total cpu time :******** secs   av.it.:  20.0
      thresh= 8.482E-05 alpha_mix =  0.700 |ddv_scf|^2 =  1.611E-07

      iter #   3 total cpu time :******** secs   av.it.:  19.4
      thresh= 4.014E-05 alpha_mix =  0.700 |ddv_scf|^2 =  1.921E-08

      iter #   4 total cpu time :******** secs   av.it.:  19.1
      thresh= 1.386E-05 alpha_mix =  0.700 |ddv_scf|^2 =  5.702E-10

      iter #   5 total cpu time :******** secs   av.it.:  19.7
      thresh= 2.388E-06 alpha_mix =  0.700 |ddv_scf|^2 =  1.755E-11

      iter #   6 total cpu time :******** secs   av.it.:  20.6
      thresh= 4.189E-07 alpha_mix =  0.700 |ddv_scf|^2 =  4.354E-12

      iter #   7 total cpu time :******** secs   av.it.:  20.1
      thresh= 2.087E-07 alpha_mix =  0.700 |ddv_scf|^2 =  3.384E-13

      iter #   8 total cpu time :******** secs   av.it.:  20.6
      thresh= 5.817E-08 alpha_mix =  0.700 |ddv_scf|^2 =  1.412E-13

      iter #   9 total cpu time :******** secs   av.it.:  19.9
      thresh= 3.757E-08 alpha_mix =  0.700 |ddv_scf|^2 =  4.020E-15

     End of self-consistent calculation

     Convergence has been achieved 

     Number of q in the star =    1
     List of q in the star:
          1  -0.500439579  -0.262122009  -0.179230784

     Diagonalizing the dynamical matrix

     q = (   -0.500439579  -0.262122009  -0.179230784 ) 

 **************************************************************************
     freq (    1) =       6.293896 [THz] =     209.941773 [cm-1]
     freq (    2) =       6.294080 [THz] =     209.947919 [cm-1]
     freq (    3) =       6.295496 [THz] =     209.995140 [cm-1]
     freq (    4) =       6.295728 [THz] =     210.002874 [cm-1]
     freq (    5) =       9.217689 [THz] =     307.469019 [cm-1]
     freq (    6) =       9.217855 [THz] =     307.474545 [cm-1]
     freq (    7) =      11.175569 [THz] =     372.776869 [cm-1]
     freq (    8) =      11.176729 [THz] =     372.815549 [cm-1]
     freq (    9) =      11.988807 [THz] =     399.903568 [cm-1]
     freq (   10) =      11.989440 [THz] =     399.924660 [cm-1]
     freq (   11) =      11.993793 [THz] =     400.069865 [cm-1]
     freq (   12) =      11.994083 [THz] =     400.079540 [cm-1]
     freq (   13) =      14.471916 [THz] =     482.731162 [cm-1]
     freq (   14) =      14.472212 [THz] =     482.741043 [cm-1]
     freq (   15) =      14.472699 [THz] =     482.757274 [cm-1]
     freq (   16) =      14.473557 [THz] =     482.785906 [cm-1]
     freq (   17) =      15.318148 [THz] =     510.958425 [cm-1]
     freq (   18) =      15.318834 [THz] =     510.981295 [cm-1]
     freq (   19) =      15.319331 [THz] =     510.997885 [cm-1]
     freq (   20) =      15.320830 [THz] =     511.047888 [cm-1]
     freq (   21) =      15.408450 [THz] =     513.970566 [cm-1]
     freq (   22) =      15.410505 [THz] =     514.039128 [cm-1]
     freq (   23) =      18.940666 [THz] =     631.792605 [cm-1]
     freq (   24) =      18.942788 [THz] =     631.863388 [cm-1]
     freq (   25) =      19.936046 [THz] =     664.994901 [cm-1]
     freq (   26) =      19.938318 [THz] =     665.070713 [cm-1]
     freq (   27) =      19.939885 [THz] =     665.122975 [cm-1]
     freq (   28) =      19.940771 [THz] =     665.152523 [cm-1]
     freq (   29) =      23.868757 [THz] =     796.176025 [cm-1]
     freq (   30) =      23.869709 [THz] =     796.207789 [cm-1]
 **************************************************************************

     Mode symmetry, C_i (-1)    point group:

     freq (   1-   1) =        209.9  [cm-1]   --> A_g                
     freq (   2-   2) =        209.9  [cm-1]   --> A_g                
     freq (   3-   3) =        210.0  [cm-1]   --> A_u                
     freq (   4-   4) =        210.0  [cm-1]   --> A_u                
     freq (   5-   5) =        307.5  [cm-1]   --> A_g                
     freq (   6-   6) =        307.5  [cm-1]   --> A_u                
     freq (   7-   7) =        372.8  [cm-1]   --> A_g                
     freq (   8-   8) =        372.8  [cm-1]   --> A_u                
     freq (   9-   9) =        399.9  [cm-1]   --> A_g                
     freq (  10-  10) =        399.9  [cm-1]   --> A_u                
     freq (  11-  11) =        400.1  [cm-1]   --> A_g                
     freq (  12-  12) =        400.1  [cm-1]   --> A_u                
     freq (  13-  13) =        482.7  [cm-1]   --> A_g                
     freq (  14-  14) =        482.7  [cm-1]   --> A_g                
     freq (  15-  15) =        482.8  [cm-1]   --> A_u                
     freq (  16-  16) =        482.8  [cm-1]   --> A_u                
     freq (  17-  17) =        511.0  [cm-1]   --> A_g                
     freq (  18-  18) =        511.0  [cm-1]   --> A_u                
     freq (  19-  19) =        511.0  [cm-1]   --> A_u                
     freq (  20-  20) =        511.0  [cm-1]   --> A_g                
     freq (  21-  21) =        514.0  [cm-1]   --> A_g                
     freq (  22-  22) =        514.0  [cm-1]   --> A_u                
     freq (  23-  23) =        631.8  [cm-1]   --> A_u                
     freq (  24-  24) =        631.9  [cm-1]   --> A_g                
     freq (  25-  25) =        665.0  [cm-1]   --> A_g                
     freq (  26-  26) =        665.1  [cm-1]   --> A_u                
     freq (  27-  27) =        665.1  [cm-1]   --> A_g                
     freq (  28-  28) =        665.2  [cm-1]   --> A_u                
     freq (  29-  29) =        796.2  [cm-1]   --> A_g                
     freq (  30-  30) =        796.2  [cm-1]   --> A_u                

     init_run     :      4.65s CPU      5.19s WALL (       7 calls)
     electrons    :   2124.72s CPU   2263.11s WALL (       7 calls)

     Called by init_run:
     wfcinit      :      0.00s CPU      0.00s WALL (       7 calls)
     potinit      :      0.66s CPU      1.10s WALL (       7 calls)
     hinit0       :      2.91s CPU      2.94s WALL (       7 calls)

     Called by electrons:
     c_bands      :   2124.72s CPU   2263.10s WALL (       7 calls)
     v_of_rho     :      0.11s CPU      0.11s WALL (       8 calls)
     newd         :      0.29s CPU      0.33s WALL (       8 calls)
     PAW_pot      :      0.61s CPU      0.67s WALL (       8 calls)

     Called by c_bands:
     init_us_2    :    510.58s CPU    588.02s WALL ( 2276764 calls)
     init_us_2:cp :    506.16s CPU    584.08s WALL ( 2276764 calls)
     cegterg      :   1796.23s CPU   1889.93s WALL (   12152 calls)

     Called by *egterg:
     cdiaghg      :    754.89s CPU    809.94s WALL (  192472 calls)
     h_psi        : 885796.35s CPU 964023.56s WALL (43488967 calls)
     s_psi        :  12924.60s CPU  13376.21s WALL (88552710 calls)
     g_psi        :      6.03s CPU      6.32s WALL (  180320 calls)

     Called by h_psi:
     h_psi:calbec :  83682.95s CPU  91898.20s WALL (43488967 calls)
     vloc_psi     : 794711.88s CPU 864456.14s WALL (43488967 calls)
     add_vuspsi   :   6715.84s CPU   6969.05s WALL (43488967 calls)

     General routines
     calbec       : 201639.01s CPU 221928.38s WALL (92717374 calls)
     fft          :     67.38s CPU     73.01s WALL (   43590 calls)
     ffts         :   4673.77s CPU   5225.42s WALL (  246146 calls)
     fftw         : 886772.01s CPU 966417.64s WALL (******** calls)
     interpolate  :      7.04s CPU      7.67s WALL (    4346 calls)
     davcio       :    654.01s CPU  51323.36s WALL ( 9789818 calls)

     Parallel routines

     PHONON       :  16d 6h55m CPU  18d 8h44m WALL

     INITIALIZATION: 
     phq_setup    :      0.27s CPU      0.52s WALL (       8 calls)
     phq_init     :   1162.22s CPU   1215.74s WALL (       8 calls)

     phq_init     :   1162.22s CPU   1215.74s WALL (       8 calls)
     set_drhoc    :      4.64s CPU      4.65s WALL (      24 calls)
     init_vloc    :      1.32s CPU      1.32s WALL (       8 calls)
     init_us_1    :      0.46s CPU      0.49s WALL (       8 calls)
     init_us_2    :    510.58s CPU    588.02s WALL ( 2276764 calls)
     newd         :      0.29s CPU      0.33s WALL (       8 calls)
     dvanqq       :     16.31s CPU     16.38s WALL (       8 calls)
     drho         :   1002.72s CPU   1037.43s WALL (       8 calls)

     DYNAMICAL MATRIX:
     dynmat0      :     96.26s CPU    105.64s WALL (       8 calls)
     phqscf       : *********s CPU *********s WALL (       8 calls)
     dynmatrix    :      0.83s CPU      0.95s WALL (       8 calls)

     phqscf       : *********s CPU *********s WALL (       8 calls)
     solve_linter : *********s CPU *********s WALL (     240 calls)
     drhodv       :   2738.77s CPU   3103.88s WALL (     240 calls)

     dynmat0      :     96.26s CPU    105.64s WALL (       8 calls)
     dynmat_us    :     92.26s CPU    101.33s WALL (       8 calls)
     d2ionq       :      0.59s CPU      0.59s WALL (       8 calls)
     dynmatcc     :      3.29s CPU      3.32s WALL (       8 calls)

     dynmat_us    :     92.26s CPU    101.33s WALL (       8 calls)
     addusdynmat  :      0.01s CPU      0.01s WALL (       8 calls)

     phqscf       : *********s CPU *********s WALL (       8 calls)
     solve_linter : *********s CPU *********s WALL (     240 calls)

     solve_linter : *********s CPU *********s WALL (     240 calls)
     dvqpsi_us    :  17100.75s CPU  18580.88s WALL (  234360 calls)
     sth_kernel   : *********s CPU *********s WALL (    2032 calls)
     apply_dpot_b :  48710.38s CPU  53555.82s WALL ( 1563268 calls)
     ortho        :   8984.15s CPU   9871.32s WALL ( 1776796 calls)
     cgsolve      : *********s CPU *********s WALL ( 1776796 calls)
     incdrhoscf   :  57383.73s CPU  62623.56s WALL ( 1776796 calls)
     addusddens   :    242.38s CPU    491.26s WALL (    2266 calls)
     dv_of_drho   :     23.26s CPU     24.67s WALL (    2047 calls)
     mix_pot      :     60.78s CPU    159.22s WALL (    2032 calls)
     psymdvscf    :    300.49s CPU    326.01s WALL (    2026 calls)
     newdq        :    176.72s CPU    180.46s WALL (    2032 calls)
     adddvscf     :   1290.63s CPU   1329.61s WALL ( 1563268 calls)
     drhodvus     :      1.42s CPU      4.59s WALL (     240 calls)

     dvqpsi_us    :  17100.75s CPU  18580.88s WALL (  234360 calls)
     dvqpsi_us_on :   2702.28s CPU   2726.81s WALL (  234360 calls)

     cgsolve      : *********s CPU *********s WALL ( 1776796 calls)
     ch_psi       : *********s CPU *********s WALL (43284343 calls)

     ch_psi       : *********s CPU *********s WALL (43284343 calls)
     h_psi        : 885796.35s CPU 964023.56s WALL (43488967 calls)
     last         : 156923.08s CPU 171562.65s WALL (43284343 calls)

     h_psi        : 885796.35s CPU 964023.56s WALL (43488967 calls)
     add_vuspsi   :   6715.84s CPU   6969.05s WALL (43488967 calls)

     incdrhoscf   :  57383.73s CPU  62623.56s WALL ( 1776796 calls)
     addusdbec    :   3956.81s CPU   4342.73s WALL ( 1985116 calls)

     drhodvus     :      1.42s CPU      4.59s WALL (     240 calls)

      General routines
     calbec       : 201639.01s CPU 221928.38s WALL (92717374 calls)
     fft          :     67.38s CPU     73.01s WALL (   43590 calls)
     ffts         :   4673.77s CPU   5225.42s WALL (  246146 calls)
     fftw         : 886772.01s CPU 966417.64s WALL (******** calls)
     davcio       :    654.01s CPU  51323.36s WALL ( 9789818 calls)
     write_rec    :     10.01s CPU    220.15s WALL (    2272 calls)


     PHONON       :  16d 6h55m CPU  18d 8h44m WALL


   This run was terminated on:  18:36:48  24Jun2026            

=------------------------------------------------------------------------------=
   JOB DONE.
=------------------------------------------------------------------------------=
