
     Program PWSCF v.7.0 starts on  4Jun2026 at 12:23:58 

     This program is part of the open-source Quantum ESPRESSO suite
     for quantum simulation of materials; please cite
         "P. Giannozzi et al., J. Phys.:Condens. Matter 21 395502 (2009);
         "P. Giannozzi et al., J. Phys.:Condens. Matter 29 465901 (2017);
         "P. Giannozzi et al., J. Chem. Phys. 152 154105 (2020);
          URL http://www.quantum-espresso.org", 
     in publications or presentations arising from this work. More details at
     http://www.quantum-espresso.org/quote

     Parallel version (MPI), running on    20 processors

     MPI processes distributed on     1 nodes
     R & G space division:  proc/nbgrp/npool/nimage =      20
     305924 MiB available memory on the printing compute node when the environment starts

     Reading input from Al2O3.scf.in

     Current dimensions of program PWSCF are:
     Max number of different atomic species (ntypx) = 10
     Max number of k-points (npk) =  40000
     Max angular momentum in pseudopotentials (lmaxx) =  4
     file O.pbe-n-kjpaw_psl.1.0.0.UPF: wavefunction(s)  2S 2P renormalized
     file Al.pbe-n-kjpaw_psl.1.0.0.UPF: wavefunction(s)  3S 3P renormalized

     IMPORTANT: XC functional enforced from input :
     Exchange-correlation= PBE
                           (   1   4   3   4   0   0   0)
     Any further DFT definition will be discarded
     Please, verify this is what you really want

     Message from routine setup:
     using ibrav=0 with symmetry is DISCOURAGED, use correct ibrav instead

     Subspace diagonalization in iterative solution of the eigenvalue problem:
     one sub-group per band group will be used
     scalapack distributed-memory algorithm (size of sub-group:  4*  4 procs)


     Parallelization info
     --------------------
     sticks:   dense  smooth     PW     G-vecs:    dense   smooth      PW
     Min         201     100     29                 8134     2871     456
     Max         202     101     30                 8137     2873     457
     Sum        4037    2009    593               162715    57437    9121

     Using Slab Decomposition



     bravais-lattice index     =            0
     lattice parameter (alat)  =       9.8018  a.u.
     unit-cell volume          =     595.0557 (a.u.)^3
     number of atoms/cell      =           10
     number of atomic types    =            2
     number of electrons       =        48.00
     number of Kohn-Sham states=           24
     kinetic-energy cutoff     =      80.0000  Ry
     charge density cutoff     =     640.0000  Ry
     scf convergence threshold =      1.0E-08
     mixing beta               =       0.2000
     number of iterations used =            8  plain     mixing
     Exchange-correlation= PBE
                           (   1   4   3   4   0   0   0)

     celldm(1)=   9.801767  celldm(2)=   0.000000  celldm(3)=   0.000000
     celldm(4)=   0.000000  celldm(5)=   0.000000  celldm(6)=   0.000000

     crystal axes: (cart. coord. in units of alat)
               a(1) = (   0.999999  -0.001141  -0.000781 )  
               a(2) = (   0.568490   0.822690  -0.000781 )  
               a(3) = (   0.568490   0.297766   0.766913 )  

     reciprocal axes: (cart. coord. in units 2 pi/alat)
               b(1) = (  0.998844 -0.690662 -0.472253 )  
               b(2) = (  0.001018  1.214373 -0.472253 )  
               b(3) = (  0.001018  0.000533  1.302968 )  


     PseudoPot. # 1 for O  read from file:
     ./pseudo/O.pbe-n-kjpaw_psl.1.0.0.UPF
     MD5 check sum: e99d9cef9b487d1ca56f5b95ecd0fd7a
     Pseudo is Projector augmented-wave + core cor, Zval =  6.0
     Generated using &quot;atomic&quot; code by A. Dal Corso  v.6.3
     Shape of augmentation charge: PSQ
     Using radial grid of 1095 points,  4 beta functions with: 
                l(1) =   0
                l(2) =   0
                l(3) =   1
                l(4) =   1
     Q(r) pseudized with 0 coefficients 


     PseudoPot. # 2 for Al read from file:
     ./pseudo/Al.pbe-n-kjpaw_psl.1.0.0.UPF
     MD5 check sum: 502b6b27b9c6270cab5dd1084b96fa6d
     Pseudo is Projector augmented-wave + core cor, Zval =  3.0
     Generated using &quot;atomic&quot; code by A. Dal Corso  v.6.3
     Shape of augmentation charge: PSQ
     Using radial grid of 1135 points,  6 beta functions with: 
                l(1) =   0
                l(2) =   0
                l(3) =   1
                l(4) =   1
                l(5) =   2
                l(6) =   2
     Q(r) pseudized with 0 coefficients 


     atomic species   valence    mass     pseudopotential
        O              6.00    15.99900     O ( 1.00)
        Al             3.00    26.98200     Al( 1.00)

      2 Sym. Ops., with inversion, found


                                    s                        frac. trans.

      isym =  1     identity                                     

 cryst.   s( 1) = (     1          0          0      )
                  (     0          1          0      )
                  (     0          0          1      )

 cart.    s( 1) = (  1.0000000 -0.0000000  0.0000000 )
                  (  0.0000000  1.0000000  0.0000000 )
                  (  0.0000000 -0.0000000  1.0000000 )


      isym =  2     inversion                                    

 cryst.   s( 2) = (    -1          0          0      )
                  (     0         -1          0      )
                  (     0          0         -1      )

 cart.    s( 2) = ( -1.0000000  0.0000000  0.0000000 )
                  ( -0.0000000 -1.0000000  0.0000000 )
                  (  0.0000000  0.0000000 -1.0000000 )


   Cartesian axes

     site n.     atom                  positions (alat units)
         1           O   tau(   1) = (   1.4022707   0.5306478   0.1905574  )
         2           O   tau(   2) = (   0.9022712   0.6331378   0.0418925  )
         3           O   tau(   3) = (   1.2347071   0.4861763   0.7234593  )
         4           O   tau(   4) = (   1.1027342   0.9419756   0.4253488  )
         5           O   tau(   5) = (   1.0342441   0.1773385   0.3400029  )
         6           O   tau(   6) = (   0.7347076   0.5886663   0.5747943  )
         7           Al  tau(   7) = (   0.3142958   0.1646230   0.1125640  )
         8           Al  tau(   8) = (   0.7541934   0.3950341   0.2701119  )
         9           Al  tau(   9) = (   1.3827850   0.7242800   0.4952399  )
        10           Al  tau(  10) = (   1.8226826   0.9546911   0.6527878  )

   Crystallographic axes

     site n.     atom                  positions (cryst. coord.)
         1           O   tau(   1) = (  0.9441599  0.5558401  0.2500000  )
         2           O   tau(   2) = (  0.4441599  0.7500000  0.0558401  )
         3           O   tau(   3) = (  0.5558401  0.2500000  0.9441599  )
         4           O   tau(   4) = (  0.2500000  0.9441599  0.5558401  )
         5           O   tau(   5) = (  0.7500000  0.0558401  0.4441599  )
         6           O   tau(   6) = (  0.0558401  0.4441599  0.7500000  )
         7           Al  tau(   7) = (  0.1470749  0.1470749  0.1470749  )
         8           Al  tau(   8) = (  0.3529251  0.3529251  0.3529251  )
         9           Al  tau(   9) = (  0.6470749  0.6470749  0.6470749  )
        10           Al  tau(  10) = (  0.8529251  0.8529251  0.8529251  )

     number of k points=   868
                       cart. coord. in units 2pi/alat
        k(    1) = (   0.0000000   0.0000000   0.0000000), wk =   0.0011574
        k(    2) = (   0.0000848   0.0000444   0.1085807), wk =   0.0023148
        k(    3) = (   0.0001696   0.0000888   0.2171613), wk =   0.0023148
        k(    4) = (   0.0002544   0.0001332   0.3257420), wk =   0.0023148
        k(    5) = (   0.0003392   0.0001777   0.4343227), wk =   0.0023148
        k(    6) = (   0.0004240   0.0002221   0.5429033), wk =   0.0023148
        k(    7) = (  -0.0005088  -0.0002665  -0.6514840), wk =   0.0011574
        k(    8) = (   0.0000848   0.1011978  -0.0393544), wk =   0.0023148
        k(    9) = (   0.0001696   0.1012422   0.0692262), wk =   0.0023148
        k(   10) = (   0.0002544   0.1012866   0.1778069), wk =   0.0023148
        k(   11) = (   0.0003392   0.1013310   0.2863876), wk =   0.0023148
        k(   12) = (   0.0004240   0.1013754   0.3949682), wk =   0.0023148
        k(   13) = (   0.0005088   0.1014199   0.5035489), wk =   0.0023148
        k(   14) = (  -0.0004240   0.1009313  -0.6908384), wk =   0.0023148
        k(   15) = (  -0.0003392   0.1009757  -0.5822578), wk =   0.0023148
        k(   16) = (  -0.0002544   0.1010201  -0.4736771), wk =   0.0023148
        k(   17) = (  -0.0001696   0.1010645  -0.3650964), wk =   0.0023148
        k(   18) = (  -0.0000848   0.1011090  -0.2565158), wk =   0.0023148
        k(   19) = (  -0.0000000   0.1011534  -0.1479351), wk =   0.0023148
        k(   20) = (   0.0001696   0.2023956  -0.0787089), wk =   0.0023148
        k(   21) = (   0.0002544   0.2024400   0.0298718), wk =   0.0023148
        k(   22) = (   0.0003392   0.2024844   0.1384525), wk =   0.0023148
        k(   23) = (   0.0004240   0.2025288   0.2470331), wk =   0.0023148
        k(   24) = (   0.0005088   0.2025732   0.3556138), wk =   0.0023148
        k(   25) = (   0.0005936   0.2026176   0.4641945), wk =   0.0023148
        k(   26) = (  -0.0003392   0.2021291  -0.7301929), wk =   0.0023148
        k(   27) = (  -0.0002544   0.2021735  -0.6216122), wk =   0.0023148
        k(   28) = (  -0.0001696   0.2022179  -0.5130315), wk =   0.0023148
        k(   29) = (  -0.0000848   0.2022623  -0.4044509), wk =   0.0023148
        k(   30) = (  -0.0000000   0.2023067  -0.2958702), wk =   0.0023148
        k(   31) = (   0.0000848   0.2023512  -0.1872895), wk =   0.0023148
        k(   32) = (   0.0002544   0.3035934  -0.1180633), wk =   0.0023148
        k(   33) = (   0.0003392   0.3036378  -0.0094826), wk =   0.0023148
        k(   34) = (   0.0004240   0.3036822   0.0990980), wk =   0.0023148
        k(   35) = (   0.0005088   0.3037266   0.2076787), wk =   0.0023148
        k(   36) = (   0.0005936   0.3037710   0.3162594), wk =   0.0023148
        k(   37) = (   0.0006784   0.3038154   0.4248400), wk =   0.0023148
        k(   38) = (  -0.0002544   0.3033269  -0.7695473), wk =   0.0023148
        k(   39) = (  -0.0001696   0.3033713  -0.6609666), wk =   0.0023148
        k(   40) = (  -0.0000848   0.3034157  -0.5523860), wk =   0.0023148
        k(   41) = (  -0.0000000   0.3034601  -0.4438053), wk =   0.0023148
        k(   42) = (   0.0000848   0.3035045  -0.3352246), wk =   0.0023148
        k(   43) = (   0.0001696   0.3035489  -0.2266440), wk =   0.0023148
        k(   44) = (   0.0003392   0.4047911  -0.1574177), wk =   0.0023148
        k(   45) = (   0.0004240   0.4048356  -0.0488371), wk =   0.0023148
        k(   46) = (   0.0005088   0.4048800   0.0597436), wk =   0.0023148
        k(   47) = (   0.0005936   0.4049244   0.1683243), wk =   0.0023148
        k(   48) = (   0.0006784   0.4049688   0.2769049), wk =   0.0023148
        k(   49) = (   0.0007632   0.4050132   0.3854856), wk =   0.0023148
        k(   50) = (  -0.0001696   0.4045246  -0.8089017), wk =   0.0023148
        k(   51) = (  -0.0000848   0.4045691  -0.7003211), wk =   0.0023148
        k(   52) = (  -0.0000000   0.4046135  -0.5917404), wk =   0.0023148
        k(   53) = (   0.0000848   0.4046579  -0.4831597), wk =   0.0023148
        k(   54) = (   0.0001696   0.4047023  -0.3745791), wk =   0.0023148
        k(   55) = (   0.0002544   0.4047467  -0.2659984), wk =   0.0023148
        k(   56) = (   0.0004240   0.5059889  -0.1967722), wk =   0.0023148
        k(   57) = (   0.0005088   0.5060333  -0.0881915), wk =   0.0023148
        k(   58) = (   0.0005936   0.5060778   0.0203892), wk =   0.0023148
        k(   59) = (   0.0006784   0.5061222   0.1289698), wk =   0.0023148
        k(   60) = (   0.0007632   0.5061666   0.2375505), wk =   0.0023148
        k(   61) = (   0.0008480   0.5062110   0.3461312), wk =   0.0023148
        k(   62) = (  -0.0000848   0.5057224  -0.8482562), wk =   0.0023148
        k(   63) = (  -0.0000000   0.5057668  -0.7396755), wk =   0.0023148
        k(   64) = (   0.0000848   0.5058113  -0.6310948), wk =   0.0023148
        k(   65) = (   0.0001696   0.5058557  -0.5225142), wk =   0.0023148
        k(   66) = (   0.0002544   0.5059001  -0.4139335), wk =   0.0023148
        k(   67) = (   0.0003392   0.5059445  -0.3053528), wk =   0.0023148
        k(   68) = (  -0.0005088  -0.6071867   0.2361266), wk =   0.0011574
        k(   69) = (  -0.0004240  -0.6071423   0.3447073), wk =   0.0023148
        k(   70) = (  -0.0003392  -0.6070979   0.4532879), wk =   0.0023148
        k(   71) = (  -0.0002544  -0.6070535   0.5618686), wk =   0.0023148
        k(   72) = (  -0.0001696  -0.6070090   0.6704493), wk =   0.0023148
        k(   73) = (  -0.0000848  -0.6069646   0.7790299), wk =   0.0023148
        k(   74) = (  -0.0010176  -0.6074532  -0.4153574), wk =   0.0011574
        k(   75) = (   0.0832370  -0.0575552  -0.0393544), wk =   0.0023148
        k(   76) = (   0.0833218  -0.0575108   0.0692262), wk =   0.0023148
        k(   77) = (   0.0834066  -0.0574664   0.1778069), wk =   0.0023148
        k(   78) = (   0.0834914  -0.0574220   0.2863876), wk =   0.0023148
        k(   79) = (   0.0835762  -0.0573775   0.3949682), wk =   0.0023148
        k(   80) = (   0.0836610  -0.0573331   0.5035489), wk =   0.0023148
        k(   81) = (   0.0827282  -0.0578217  -0.6908384), wk =   0.0023148
        k(   82) = (   0.0828130  -0.0577773  -0.5822578), wk =   0.0023148
        k(   83) = (   0.0828978  -0.0577329  -0.4736771), wk =   0.0023148
        k(   84) = (   0.0829826  -0.0576884  -0.3650964), wk =   0.0023148
        k(   85) = (   0.0830674  -0.0576440  -0.2565158), wk =   0.0023148
        k(   86) = (   0.0831522  -0.0575996  -0.1479351), wk =   0.0023148
        k(   87) = (   0.0833218   0.0436426  -0.0787089), wk =   0.0023148
        k(   88) = (   0.0834066   0.0436870   0.0298718), wk =   0.0023148
        k(   89) = (   0.0834914   0.0437314   0.1384525), wk =   0.0023148
        k(   90) = (   0.0835762   0.0437758   0.2470331), wk =   0.0023148
        k(   91) = (   0.0836610   0.0438202   0.3556138), wk =   0.0023148
        k(   92) = (   0.0837458   0.0438647   0.4641945), wk =   0.0023148
        k(   93) = (   0.0828130   0.0433761  -0.7301929), wk =   0.0023148
        k(   94) = (   0.0828978   0.0434205  -0.6216122), wk =   0.0023148
        k(   95) = (   0.0829826   0.0434649  -0.5130315), wk =   0.0023148
        k(   96) = (   0.0830674   0.0435093  -0.4044509), wk =   0.0023148
        k(   97) = (   0.0831522   0.0435538  -0.2958702), wk =   0.0023148
        k(   98) = (   0.0832370   0.0435982  -0.1872895), wk =   0.0023148
        k(   99) = (   0.0834066   0.1448404  -0.1180633), wk =   0.0023148
        k(  100) = (   0.0834914   0.1448848  -0.0094826), wk =   0.0023148
        k(  101) = (   0.0835762   0.1449292   0.0990980), wk =   0.0023148
        k(  102) = (   0.0836610   0.1449736   0.2076787), wk =   0.0023148
        k(  103) = (   0.0837458   0.1450180   0.3162594), wk =   0.0023148
        k(  104) = (   0.0838306   0.1450624   0.4248400), wk =   0.0023148
        k(  105) = (   0.0828978   0.1445739  -0.7695473), wk =   0.0023148
        k(  106) = (   0.0829826   0.1446183  -0.6609666), wk =   0.0023148
        k(  107) = (   0.0830674   0.1446627  -0.5523860), wk =   0.0023148
        k(  108) = (   0.0831522   0.1447071  -0.4438053), wk =   0.0023148
        k(  109) = (   0.0832370   0.1447515  -0.3352246), wk =   0.0023148
        k(  110) = (   0.0833218   0.1447960  -0.2266440), wk =   0.0023148
        k(  111) = (   0.0834914   0.2460382  -0.1574177), wk =   0.0023148
        k(  112) = (   0.0835762   0.2460826  -0.0488371), wk =   0.0023148
        k(  113) = (   0.0836610   0.2461270   0.0597436), wk =   0.0023148
        k(  114) = (   0.0837458   0.2461714   0.1683243), wk =   0.0023148
        k(  115) = (   0.0838306   0.2462158   0.2769049), wk =   0.0023148
        k(  116) = (   0.0839154   0.2462602   0.3854856), wk =   0.0023148
        k(  117) = (   0.0829826   0.2457717  -0.8089017), wk =   0.0023148
        k(  118) = (   0.0830674   0.2458161  -0.7003211), wk =   0.0023148
        k(  119) = (   0.0831522   0.2458605  -0.5917404), wk =   0.0023148
        k(  120) = (   0.0832370   0.2459049  -0.4831597), wk =   0.0023148
        k(  121) = (   0.0833218   0.2459493  -0.3745791), wk =   0.0023148
        k(  122) = (   0.0834066   0.2459937  -0.2659984), wk =   0.0023148
        k(  123) = (   0.0835762   0.3472359  -0.1967722), wk =   0.0023148
        k(  124) = (   0.0836610   0.3472804  -0.0881915), wk =   0.0023148
        k(  125) = (   0.0837458   0.3473248   0.0203892), wk =   0.0023148
        k(  126) = (   0.0838306   0.3473692   0.1289698), wk =   0.0023148
        k(  127) = (   0.0839154   0.3474136   0.2375505), wk =   0.0023148
        k(  128) = (   0.0840002   0.3474580   0.3461312), wk =   0.0023148
        k(  129) = (   0.0830674   0.3469694  -0.8482562), wk =   0.0023148
        k(  130) = (   0.0831522   0.3470139  -0.7396755), wk =   0.0023148
        k(  131) = (   0.0832370   0.3470583  -0.6310948), wk =   0.0023148
        k(  132) = (   0.0833218   0.3471027  -0.5225142), wk =   0.0023148
        k(  133) = (   0.0834066   0.3471471  -0.4139335), wk =   0.0023148
        k(  134) = (   0.0834914   0.3471915  -0.3053528), wk =   0.0023148
        k(  135) = (   0.0836610   0.4484337  -0.2361266), wk =   0.0023148
        k(  136) = (   0.0837458   0.4484781  -0.1275459), wk =   0.0023148
        k(  137) = (   0.0838306   0.4485226  -0.0189653), wk =   0.0023148
        k(  138) = (   0.0839154   0.4485670   0.0896154), wk =   0.0023148
        k(  139) = (   0.0840002   0.4486114   0.1981961), wk =   0.0023148
        k(  140) = (   0.0840850   0.4486558   0.3067767), wk =   0.0023148
        k(  141) = (   0.0831522   0.4481672  -0.8876106), wk =   0.0023148
        k(  142) = (   0.0832370   0.4482116  -0.7790299), wk =   0.0023148
        k(  143) = (   0.0833218   0.4482561  -0.6704493), wk =   0.0023148
        k(  144) = (   0.0834066   0.4483005  -0.5618686), wk =   0.0023148
        k(  145) = (   0.0834914   0.4483449  -0.4532879), wk =   0.0023148
        k(  146) = (   0.0835762   0.4483893  -0.3447073), wk =   0.0023148
        k(  147) = (   0.0827282  -0.6647419   0.1967722), wk =   0.0023148
        k(  148) = (   0.0828130  -0.6646975   0.3053528), wk =   0.0023148
        k(  149) = (   0.0828978  -0.6646531   0.4139335), wk =   0.0023148
        k(  150) = (   0.0829826  -0.6646087   0.5225142), wk =   0.0023148
        k(  151) = (   0.0830674  -0.6645642   0.6310948), wk =   0.0023148
        k(  152) = (   0.0831522  -0.6645198   0.7396755), wk =   0.0023148
        k(  153) = (   0.0822194  -0.6650084  -0.4547118), wk =   0.0023148
        k(  154) = (   0.0823042  -0.6649640  -0.3461312), wk =   0.0023148
        k(  155) = (   0.0823890  -0.6649196  -0.2375505), wk =   0.0023148
        k(  156) = (   0.0824738  -0.6648751  -0.1289698), wk =   0.0023148
        k(  157) = (   0.0825586  -0.6648307  -0.0203892), wk =   0.0023148
        k(  158) = (   0.0826434  -0.6647863   0.0881915), wk =   0.0023148
        k(  159) = (   0.0828130  -0.5635441   0.1574177), wk =   0.0023148
        k(  160) = (   0.0828978  -0.5634997   0.2659984), wk =   0.0023148
        k(  161) = (   0.0829826  -0.5634553   0.3745791), wk =   0.0023148
        k(  162) = (   0.0830674  -0.5634109   0.4831597), wk =   0.0023148
        k(  163) = (   0.0831522  -0.5633665   0.5917404), wk =   0.0023148
        k(  164) = (   0.0832370  -0.5633220   0.7003211), wk =   0.0023148
        k(  165) = (   0.0823042  -0.5638106  -0.4940663), wk =   0.0023148
        k(  166) = (   0.0823890  -0.5637662  -0.3854856), wk =   0.0023148
        k(  167) = (   0.0824738  -0.5637218  -0.2769049), wk =   0.0023148
        k(  168) = (   0.0825586  -0.5636774  -0.1683243), wk =   0.0023148
        k(  169) = (   0.0826434  -0.5636329  -0.0597436), wk =   0.0023148
        k(  170) = (   0.0827282  -0.5635885   0.0488371), wk =   0.0023148
        k(  171) = (   0.0828978  -0.4623463   0.1180633), wk =   0.0023148
        k(  172) = (   0.0829826  -0.4623019   0.2266440), wk =   0.0023148
        k(  173) = (   0.0830674  -0.4622575   0.3352246), wk =   0.0023148
        k(  174) = (   0.0831522  -0.4622131   0.4438053), wk =   0.0023148
        k(  175) = (   0.0832370  -0.4621687   0.5523860), wk =   0.0023148
        k(  176) = (   0.0833218  -0.4621243   0.6609666), wk =   0.0023148
        k(  177) = (   0.0823890  -0.4626128  -0.5334207), wk =   0.0023148
        k(  178) = (   0.0824738  -0.4625684  -0.4248400), wk =   0.0023148
        k(  179) = (   0.0825586  -0.4625240  -0.3162594), wk =   0.0023148
        k(  180) = (   0.0826434  -0.4624796  -0.2076787), wk =   0.0023148
        k(  181) = (   0.0827282  -0.4624352  -0.0990980), wk =   0.0023148
        k(  182) = (   0.0828130  -0.4623907   0.0094826), wk =   0.0023148
        k(  183) = (   0.0829826  -0.3611485   0.0787089), wk =   0.0023148
        k(  184) = (   0.0830674  -0.3611041   0.1872895), wk =   0.0023148
        k(  185) = (   0.0831522  -0.3610597   0.2958702), wk =   0.0023148
        k(  186) = (   0.0832370  -0.3610153   0.4044509), wk =   0.0023148
        k(  187) = (   0.0833218  -0.3609709   0.5130315), wk =   0.0023148
        k(  188) = (   0.0834066  -0.3609265   0.6216122), wk =   0.0023148
        k(  189) = (   0.0824738  -0.3614150  -0.5727751), wk =   0.0023148
        k(  190) = (   0.0825586  -0.3613706  -0.4641945), wk =   0.0023148
        k(  191) = (   0.0826434  -0.3613262  -0.3556138), wk =   0.0023148
        k(  192) = (   0.0827282  -0.3612818  -0.2470331), wk =   0.0023148
        k(  193) = (   0.0828130  -0.3612374  -0.1384525), wk =   0.0023148
        k(  194) = (   0.0828978  -0.3611930  -0.0298718), wk =   0.0023148
        k(  195) = (   0.0830674  -0.2599508   0.0393544), wk =   0.0023148
        k(  196) = (   0.0831522  -0.2599063   0.1479351), wk =   0.0023148
        k(  197) = (   0.0832370  -0.2598619   0.2565158), wk =   0.0023148
        k(  198) = (   0.0833218  -0.2598175   0.3650964), wk =   0.0023148
        k(  199) = (   0.0834066  -0.2597731   0.4736771), wk =   0.0023148
        k(  200) = (   0.0834914  -0.2597287   0.5822578), wk =   0.0023148
        k(  201) = (   0.0825586  -0.2602173  -0.6121296), wk =   0.0023148
        k(  202) = (   0.0826434  -0.2601728  -0.5035489), wk =   0.0023148
        k(  203) = (   0.0827282  -0.2601284  -0.3949682), wk =   0.0023148
        k(  204) = (   0.0828130  -0.2600840  -0.2863876), wk =   0.0023148
        k(  205) = (   0.0828978  -0.2600396  -0.1778069), wk =   0.0023148
        k(  206) = (   0.0829826  -0.2599952  -0.0692262), wk =   0.0023148
        k(  207) = (   0.0831522  -0.1587530   0.0000000), wk =   0.0023148
        k(  208) = (   0.0832370  -0.1587086   0.1085807), wk =   0.0023148
        k(  209) = (   0.0833218  -0.1586641   0.2171613), wk =   0.0023148
        k(  210) = (   0.0834066  -0.1586197   0.3257420), wk =   0.0023148
        k(  211) = (   0.0834914  -0.1585753   0.4343227), wk =   0.0023148
        k(  212) = (   0.0835762  -0.1585309   0.5429033), wk =   0.0023148
        k(  213) = (   0.0826434  -0.1590195  -0.6514840), wk =   0.0023148
        k(  214) = (   0.0827282  -0.1589751  -0.5429033), wk =   0.0023148
        k(  215) = (   0.0828130  -0.1589306  -0.4343227), wk =   0.0023148
        k(  216) = (   0.0828978  -0.1588862  -0.3257420), wk =   0.0023148
        k(  217) = (   0.0829826  -0.1588418  -0.2171613), wk =   0.0023148
        k(  218) = (   0.0830674  -0.1587974  -0.1085807), wk =   0.0023148
        k(  219) = (   0.1664740  -0.1151104  -0.0787089), wk =   0.0023148
        k(  220) = (   0.1665588  -0.1150660   0.0298718), wk =   0.0023148
        k(  221) = (   0.1666436  -0.1150216   0.1384525), wk =   0.0023148
        k(  222) = (   0.1667284  -0.1149771   0.2470331), wk =   0.0023148
        k(  223) = (   0.1668132  -0.1149327   0.3556138), wk =   0.0023148
        k(  224) = (   0.1668980  -0.1148883   0.4641945), wk =   0.0023148
        k(  225) = (   0.1659652  -0.1153769  -0.7301929), wk =   0.0023148
        k(  226) = (   0.1660500  -0.1153325  -0.6216122), wk =   0.0023148
        k(  227) = (   0.1661348  -0.1152881  -0.5130315), wk =   0.0023148
        k(  228) = (   0.1662196  -0.1152436  -0.4044509), wk =   0.0023148
        k(  229) = (   0.1663044  -0.1151992  -0.2958702), wk =   0.0023148
        k(  230) = (   0.1663892  -0.1151548  -0.1872895), wk =   0.0023148
        k(  231) = (   0.1665588  -0.0139126  -0.1180633), wk =   0.0023148
        k(  232) = (   0.1666436  -0.0138682  -0.0094826), wk =   0.0023148
        k(  233) = (   0.1667284  -0.0138238   0.0990980), wk =   0.0023148
        k(  234) = (   0.1668132  -0.0137794   0.2076787), wk =   0.0023148
        k(  235) = (   0.1668980  -0.0137349   0.3162594), wk =   0.0023148
        k(  236) = (   0.1669828  -0.0136905   0.4248400), wk =   0.0023148
        k(  237) = (   0.1660500  -0.0141791  -0.7695473), wk =   0.0023148
        k(  238) = (   0.1661348  -0.0141347  -0.6609666), wk =   0.0023148
        k(  239) = (   0.1662196  -0.0140903  -0.5523860), wk =   0.0023148
        k(  240) = (   0.1663044  -0.0140459  -0.4438053), wk =   0.0023148
        k(  241) = (   0.1663892  -0.0140014  -0.3352246), wk =   0.0023148
        k(  242) = (   0.1664740  -0.0139570  -0.2266440), wk =   0.0023148
        k(  243) = (   0.1666436   0.0872852  -0.1574177), wk =   0.0023148
        k(  244) = (   0.1667284   0.0873296  -0.0488371), wk =   0.0023148
        k(  245) = (   0.1668132   0.0873740   0.0597436), wk =   0.0023148
        k(  246) = (   0.1668980   0.0874184   0.1683243), wk =   0.0023148
        k(  247) = (   0.1669828   0.0874628   0.2769049), wk =   0.0023148
        k(  248) = (   0.1670676   0.0875073   0.3854856), wk =   0.0023148
        k(  249) = (   0.1661348   0.0870187  -0.8089017), wk =   0.0023148
        k(  250) = (   0.1662196   0.0870631  -0.7003211), wk =   0.0023148
        k(  251) = (   0.1663044   0.0871075  -0.5917404), wk =   0.0023148
        k(  252) = (   0.1663892   0.0871519  -0.4831597), wk =   0.0023148
        k(  253) = (   0.1664740   0.0871963  -0.3745791), wk =   0.0023148
        k(  254) = (   0.1665588   0.0872408  -0.2659984), wk =   0.0023148
        k(  255) = (   0.1667284   0.1884830  -0.1967722), wk =   0.0023148
        k(  256) = (   0.1668132   0.1885274  -0.0881915), wk =   0.0023148
        k(  257) = (   0.1668980   0.1885718   0.0203892), wk =   0.0023148
        k(  258) = (   0.1669828   0.1886162   0.1289698), wk =   0.0023148
        k(  259) = (   0.1670676   0.1886606   0.2375505), wk =   0.0023148
        k(  260) = (   0.1671524   0.1887050   0.3461312), wk =   0.0023148
        k(  261) = (   0.1662196   0.1882165  -0.8482562), wk =   0.0023148
        k(  262) = (   0.1663044   0.1882609  -0.7396755), wk =   0.0023148
        k(  263) = (   0.1663892   0.1883053  -0.6310948), wk =   0.0023148
        k(  264) = (   0.1664740   0.1883497  -0.5225142), wk =   0.0023148
        k(  265) = (   0.1665588   0.1883941  -0.4139335), wk =   0.0023148
        k(  266) = (   0.1666436   0.1884385  -0.3053528), wk =   0.0023148
        k(  267) = (   0.1668132   0.2896807  -0.2361266), wk =   0.0023148
        k(  268) = (   0.1668980   0.2897252  -0.1275459), wk =   0.0023148
        k(  269) = (   0.1669828   0.2897696  -0.0189653), wk =   0.0023148
        k(  270) = (   0.1670676   0.2898140   0.0896154), wk =   0.0023148
        k(  271) = (   0.1671524   0.2898584   0.1981961), wk =   0.0023148
        k(  272) = (   0.1672372   0.2899028   0.3067767), wk =   0.0023148
        k(  273) = (   0.1663044   0.2894142  -0.8876106), wk =   0.0023148
        k(  274) = (   0.1663892   0.2894587  -0.7790299), wk =   0.0023148
        k(  275) = (   0.1664740   0.2895031  -0.6704493), wk =   0.0023148
        k(  276) = (   0.1665588   0.2895475  -0.5618686), wk =   0.0023148
        k(  277) = (   0.1666436   0.2895919  -0.4532879), wk =   0.0023148
        k(  278) = (   0.1667284   0.2896363  -0.3447073), wk =   0.0023148
        k(  279) = (   0.1668980   0.3908785  -0.2754810), wk =   0.0023148
        k(  280) = (   0.1669828   0.3909229  -0.1669004), wk =   0.0023148
        k(  281) = (   0.1670676   0.3909674  -0.0583197), wk =   0.0023148
        k(  282) = (   0.1671524   0.3910118   0.0502610), wk =   0.0023148
        k(  283) = (   0.1672372   0.3910562   0.1588416), wk =   0.0023148
        k(  284) = (   0.1673220   0.3911006   0.2674223), wk =   0.0023148
        k(  285) = (   0.1663892   0.3906120  -0.9269650), wk =   0.0023148
        k(  286) = (   0.1664740   0.3906564  -0.8183844), wk =   0.0023148
        k(  287) = (   0.1665588   0.3907009  -0.7098037), wk =   0.0023148
        k(  288) = (   0.1666436   0.3907453  -0.6012230), wk =   0.0023148
        k(  289) = (   0.1667284   0.3907897  -0.4926424), wk =   0.0023148
        k(  290) = (   0.1668132   0.3908341  -0.3840617), wk =   0.0023148
        k(  291) = (   0.1659652  -0.7222971   0.1574177), wk =   0.0023148
        k(  292) = (   0.1660500  -0.7222527   0.2659984), wk =   0.0023148
        k(  293) = (   0.1661348  -0.7222083   0.3745791), wk =   0.0023148
        k(  294) = (   0.1662196  -0.7221639   0.4831597), wk =   0.0023148
        k(  295) = (   0.1663044  -0.7221194   0.5917404), wk =   0.0023148
        k(  296) = (   0.1663892  -0.7220750   0.7003211), wk =   0.0023148
        k(  297) = (   0.1654564  -0.7225636  -0.4940663), wk =   0.0023148
        k(  298) = (   0.1655412  -0.7225192  -0.3854856), wk =   0.0023148
        k(  299) = (   0.1656260  -0.7224748  -0.2769049), wk =   0.0023148
        k(  300) = (   0.1657108  -0.7224303  -0.1683243), wk =   0.0023148
        k(  301) = (   0.1657956  -0.7223859  -0.0597436), wk =   0.0023148
        k(  302) = (   0.1658804  -0.7223415   0.0488371), wk =   0.0023148
        k(  303) = (   0.1660500  -0.6210993   0.1180633), wk =   0.0023148
        k(  304) = (   0.1661348  -0.6210549   0.2266440), wk =   0.0023148
        k(  305) = (   0.1662196  -0.6210105   0.3352246), wk =   0.0023148
        k(  306) = (   0.1663044  -0.6209661   0.4438053), wk =   0.0023148
        k(  307) = (   0.1663892  -0.6209217   0.5523860), wk =   0.0023148
        k(  308) = (   0.1664740  -0.6208772   0.6609666), wk =   0.0023148
        k(  309) = (   0.1655412  -0.6213658  -0.5334207), wk =   0.0023148
        k(  310) = (   0.1656260  -0.6213214  -0.4248400), wk =   0.0023148
        k(  311) = (   0.1657108  -0.6212770  -0.3162594), wk =   0.0023148
        k(  312) = (   0.1657956  -0.6212326  -0.2076787), wk =   0.0023148
        k(  313) = (   0.1658804  -0.6211881  -0.0990980), wk =   0.0023148
        k(  314) = (   0.1659652  -0.6211437   0.0094826), wk =   0.0023148
        k(  315) = (   0.1661348  -0.5199015   0.0787089), wk =   0.0023148
        k(  316) = (   0.1662196  -0.5198571   0.1872895), wk =   0.0023148
        k(  317) = (   0.1663044  -0.5198127   0.2958702), wk =   0.0023148
        k(  318) = (   0.1663892  -0.5197683   0.4044509), wk =   0.0023148
        k(  319) = (   0.1664740  -0.5197239   0.5130315), wk =   0.0023148
        k(  320) = (   0.1665588  -0.5196795   0.6216122), wk =   0.0023148
        k(  321) = (   0.1656260  -0.5201680  -0.5727751), wk =   0.0023148
        k(  322) = (   0.1657108  -0.5201236  -0.4641945), wk =   0.0023148
        k(  323) = (   0.1657956  -0.5200792  -0.3556138), wk =   0.0023148
        k(  324) = (   0.1658804  -0.5200348  -0.2470331), wk =   0.0023148
        k(  325) = (   0.1659652  -0.5199904  -0.1384525), wk =   0.0023148
        k(  326) = (   0.1660500  -0.5199459  -0.0298718), wk =   0.0023148
        k(  327) = (   0.1662196  -0.4187037   0.0393544), wk =   0.0023148
        k(  328) = (   0.1663044  -0.4186593   0.1479351), wk =   0.0023148
        k(  329) = (   0.1663892  -0.4186149   0.2565158), wk =   0.0023148
        k(  330) = (   0.1664740  -0.4185705   0.3650964), wk =   0.0023148
        k(  331) = (   0.1665588  -0.4185261   0.4736771), wk =   0.0023148
        k(  332) = (   0.1666436  -0.4184817   0.5822578), wk =   0.0023148
        k(  333) = (   0.1657108  -0.4189702  -0.6121296), wk =   0.0023148
        k(  334) = (   0.1657956  -0.4189258  -0.5035489), wk =   0.0023148
        k(  335) = (   0.1658804  -0.4188814  -0.3949682), wk =   0.0023148
        k(  336) = (   0.1659652  -0.4188370  -0.2863876), wk =   0.0023148
        k(  337) = (   0.1660500  -0.4187926  -0.1778069), wk =   0.0023148
        k(  338) = (   0.1661348  -0.4187482  -0.0692262), wk =   0.0023148
        k(  339) = (   0.1663044  -0.3175060   0.0000000), wk =   0.0023148
        k(  340) = (   0.1663892  -0.3174615   0.1085807), wk =   0.0023148
        k(  341) = (   0.1664740  -0.3174171   0.2171613), wk =   0.0023148
        k(  342) = (   0.1665588  -0.3173727   0.3257420), wk =   0.0023148
        k(  343) = (   0.1666436  -0.3173283   0.4343227), wk =   0.0023148
        k(  344) = (   0.1667284  -0.3172839   0.5429033), wk =   0.0023148
        k(  345) = (   0.1657956  -0.3177725  -0.6514840), wk =   0.0023148
        k(  346) = (   0.1658804  -0.3177280  -0.5429033), wk =   0.0023148
        k(  347) = (   0.1659652  -0.3176836  -0.4343227), wk =   0.0023148
        k(  348) = (   0.1660500  -0.3176392  -0.3257420), wk =   0.0023148
        k(  349) = (   0.1661348  -0.3175948  -0.2171613), wk =   0.0023148
        k(  350) = (   0.1662196  -0.3175504  -0.1085807), wk =   0.0023148
        k(  351) = (   0.1663892  -0.2163082  -0.0393544), wk =   0.0023148
        k(  352) = (   0.1664740  -0.2162638   0.0692262), wk =   0.0023148
        k(  353) = (   0.1665588  -0.2162193   0.1778069), wk =   0.0023148
        k(  354) = (   0.1666436  -0.2161749   0.2863876), wk =   0.0023148
        k(  355) = (   0.1667284  -0.2161305   0.3949682), wk =   0.0023148
        k(  356) = (   0.1668132  -0.2160861   0.5035489), wk =   0.0023148
        k(  357) = (   0.1658804  -0.2165747  -0.6908384), wk =   0.0023148
        k(  358) = (   0.1659652  -0.2165303  -0.5822578), wk =   0.0023148
        k(  359) = (   0.1660500  -0.2164858  -0.4736771), wk =   0.0023148
        k(  360) = (   0.1661348  -0.2164414  -0.3650964), wk =   0.0023148
        k(  361) = (   0.1662196  -0.2163970  -0.2565158), wk =   0.0023148
        k(  362) = (   0.1663044  -0.2163526  -0.1479351), wk =   0.0023148
        k(  363) = (   0.2497110  -0.1726656  -0.1180633), wk =   0.0023148
        k(  364) = (   0.2497958  -0.1726212  -0.0094826), wk =   0.0023148
        k(  365) = (   0.2498806  -0.1725768   0.0990980), wk =   0.0023148
        k(  366) = (   0.2499654  -0.1725323   0.2076787), wk =   0.0023148
        k(  367) = (   0.2500502  -0.1724879   0.3162594), wk =   0.0023148
        k(  368) = (   0.2501350  -0.1724435   0.4248400), wk =   0.0023148
        k(  369) = (   0.2492022  -0.1729321  -0.7695473), wk =   0.0023148
        k(  370) = (   0.2492870  -0.1728877  -0.6609666), wk =   0.0023148
        k(  371) = (   0.2493718  -0.1728433  -0.5523860), wk =   0.0023148
        k(  372) = (   0.2494566  -0.1727988  -0.4438053), wk =   0.0023148
        k(  373) = (   0.2495414  -0.1727544  -0.3352246), wk =   0.0023148
        k(  374) = (   0.2496262  -0.1727100  -0.2266440), wk =   0.0023148
        k(  375) = (   0.2497958  -0.0714678  -0.1574177), wk =   0.0023148
        k(  376) = (   0.2498806  -0.0714234  -0.0488371), wk =   0.0023148
        k(  377) = (   0.2499654  -0.0713790   0.0597436), wk =   0.0023148
        k(  378) = (   0.2500502  -0.0713346   0.1683243), wk =   0.0023148
        k(  379) = (   0.2501350  -0.0712901   0.2769049), wk =   0.0023148
        k(  380) = (   0.2502198  -0.0712457   0.3854856), wk =   0.0023148
        k(  381) = (   0.2492870  -0.0717343  -0.8089017), wk =   0.0023148
        k(  382) = (   0.2493718  -0.0716899  -0.7003211), wk =   0.0023148
        k(  383) = (   0.2494566  -0.0716455  -0.5917404), wk =   0.0023148
        k(  384) = (   0.2495414  -0.0716011  -0.4831597), wk =   0.0023148
        k(  385) = (   0.2496262  -0.0715566  -0.3745791), wk =   0.0023148
        k(  386) = (   0.2497110  -0.0715122  -0.2659984), wk =   0.0023148
        k(  387) = (   0.2498806   0.0297300  -0.1967722), wk =   0.0023148
        k(  388) = (   0.2499654   0.0297744  -0.0881915), wk =   0.0023148
        k(  389) = (   0.2500502   0.0298188   0.0203892), wk =   0.0023148
        k(  390) = (   0.2501350   0.0298632   0.1289698), wk =   0.0023148
        k(  391) = (   0.2502198   0.0299076   0.2375505), wk =   0.0023148
        k(  392) = (   0.2503046   0.0299521   0.3461312), wk =   0.0023148
        k(  393) = (   0.2493718   0.0294635  -0.8482562), wk =   0.0023148
        k(  394) = (   0.2494566   0.0295079  -0.7396755), wk =   0.0023148
        k(  395) = (   0.2495414   0.0295523  -0.6310948), wk =   0.0023148
        k(  396) = (   0.2496262   0.0295967  -0.5225142), wk =   0.0023148
        k(  397) = (   0.2497110   0.0296411  -0.4139335), wk =   0.0023148
        k(  398) = (   0.2497958   0.0296856  -0.3053528), wk =   0.0023148
        k(  399) = (   0.2499654   0.1309278  -0.2361266), wk =   0.0023148
        k(  400) = (   0.2500502   0.1309722  -0.1275459), wk =   0.0023148
        k(  401) = (   0.2501350   0.1310166  -0.0189653), wk =   0.0023148
        k(  402) = (   0.2502198   0.1310610   0.0896154), wk =   0.0023148
        k(  403) = (   0.2503046   0.1311054   0.1981961), wk =   0.0023148
        k(  404) = (   0.2503894   0.1311498   0.3067767), wk =   0.0023148
        k(  405) = (   0.2494566   0.1306613  -0.8876106), wk =   0.0023148
        k(  406) = (   0.2495414   0.1307057  -0.7790299), wk =   0.0023148
        k(  407) = (   0.2496262   0.1307501  -0.6704493), wk =   0.0023148
        k(  408) = (   0.2497110   0.1307945  -0.5618686), wk =   0.0023148
        k(  409) = (   0.2497958   0.1308389  -0.4532879), wk =   0.0023148
        k(  410) = (   0.2498806   0.1308833  -0.3447073), wk =   0.0023148
        k(  411) = (   0.2500502   0.2321255  -0.2754810), wk =   0.0023148
        k(  412) = (   0.2501350   0.2321700  -0.1669004), wk =   0.0023148
        k(  413) = (   0.2502198   0.2322144  -0.0583197), wk =   0.0023148
        k(  414) = (   0.2503046   0.2322588   0.0502610), wk =   0.0023148
        k(  415) = (   0.2503894   0.2323032   0.1588416), wk =   0.0023148
        k(  416) = (   0.2504742   0.2323476   0.2674223), wk =   0.0023148
        k(  417) = (   0.2495414   0.2318590  -0.9269650), wk =   0.0023148
        k(  418) = (   0.2496262   0.2319035  -0.8183844), wk =   0.0023148
        k(  419) = (   0.2497110   0.2319479  -0.7098037), wk =   0.0023148
        k(  420) = (   0.2497958   0.2319923  -0.6012230), wk =   0.0023148
        k(  421) = (   0.2498806   0.2320367  -0.4926424), wk =   0.0023148
        k(  422) = (   0.2499654   0.2320811  -0.3840617), wk =   0.0023148
        k(  423) = (   0.2501350   0.3333233  -0.3148355), wk =   0.0023148
        k(  424) = (   0.2502198   0.3333677  -0.2062548), wk =   0.0023148
        k(  425) = (   0.2503046   0.3334122  -0.0976741), wk =   0.0023148
        k(  426) = (   0.2503894   0.3334566   0.0109065), wk =   0.0023148
        k(  427) = (   0.2504742   0.3335010   0.1194872), wk =   0.0023148
        k(  428) = (   0.2505590   0.3335454   0.2280679), wk =   0.0023148
        k(  429) = (   0.2496262   0.3330568  -0.9663195), wk =   0.0023148
        k(  430) = (   0.2497110   0.3331012  -0.8577388), wk =   0.0023148
        k(  431) = (   0.2497958   0.3331457  -0.7491581), wk =   0.0023148
        k(  432) = (   0.2498806   0.3331901  -0.6405775), wk =   0.0023148
        k(  433) = (   0.2499654   0.3332345  -0.5319968), wk =   0.0023148
        k(  434) = (   0.2500502   0.3332789  -0.4234161), wk =   0.0023148
        k(  435) = (   0.2492022  -0.7798523   0.1180633), wk =   0.0023148
        k(  436) = (   0.2492870  -0.7798079   0.2266440), wk =   0.0023148
        k(  437) = (   0.2493718  -0.7797635   0.3352246), wk =   0.0023148
        k(  438) = (   0.2494566  -0.7797190   0.4438053), wk =   0.0023148
        k(  439) = (   0.2495414  -0.7796746   0.5523860), wk =   0.0023148
        k(  440) = (   0.2496262  -0.7796302   0.6609666), wk =   0.0023148
        k(  441) = (   0.2486934  -0.7801188  -0.5334207), wk =   0.0023148
        k(  442) = (   0.2487782  -0.7800744  -0.4248400), wk =   0.0023148
        k(  443) = (   0.2488630  -0.7800300  -0.3162594), wk =   0.0023148
        k(  444) = (   0.2489478  -0.7799855  -0.2076787), wk =   0.0023148
        k(  445) = (   0.2490326  -0.7799411  -0.0990980), wk =   0.0023148
        k(  446) = (   0.2491174  -0.7798967   0.0094826), wk =   0.0023148
        k(  447) = (   0.2492870  -0.6786545   0.0787089), wk =   0.0023148
        k(  448) = (   0.2493718  -0.6786101   0.1872895), wk =   0.0023148
        k(  449) = (   0.2494566  -0.6785657   0.2958702), wk =   0.0023148
        k(  450) = (   0.2495414  -0.6785213   0.4044509), wk =   0.0023148
        k(  451) = (   0.2496262  -0.6784768   0.5130315), wk =   0.0023148
        k(  452) = (   0.2497110  -0.6784324   0.6216122), wk =   0.0023148
        k(  453) = (   0.2487782  -0.6789210  -0.5727751), wk =   0.0023148
        k(  454) = (   0.2488630  -0.6788766  -0.4641945), wk =   0.0023148
        k(  455) = (   0.2489478  -0.6788322  -0.3556138), wk =   0.0023148
        k(  456) = (   0.2490326  -0.6787878  -0.2470331), wk =   0.0023148
        k(  457) = (   0.2491174  -0.6787433  -0.1384525), wk =   0.0023148
        k(  458) = (   0.2492022  -0.6786989  -0.0298718), wk =   0.0023148
        k(  459) = (   0.2493718  -0.5774567   0.0393544), wk =   0.0023148
        k(  460) = (   0.2494566  -0.5774123   0.1479351), wk =   0.0023148
        k(  461) = (   0.2495414  -0.5773679   0.2565158), wk =   0.0023148
        k(  462) = (   0.2496262  -0.5773235   0.3650964), wk =   0.0023148
        k(  463) = (   0.2497110  -0.5772791   0.4736771), wk =   0.0023148
        k(  464) = (   0.2497958  -0.5772346   0.5822578), wk =   0.0023148
        k(  465) = (   0.2488630  -0.5777232  -0.6121296), wk =   0.0023148
        k(  466) = (   0.2489478  -0.5776788  -0.5035489), wk =   0.0023148
        k(  467) = (   0.2490326  -0.5776344  -0.3949682), wk =   0.0023148
        k(  468) = (   0.2491174  -0.5775900  -0.2863876), wk =   0.0023148
        k(  469) = (   0.2492022  -0.5775456  -0.1778069), wk =   0.0023148
        k(  470) = (   0.2492870  -0.5775011  -0.0692262), wk =   0.0023148
        k(  471) = (   0.2494566  -0.4762589   0.0000000), wk =   0.0023148
        k(  472) = (   0.2495414  -0.4762145   0.1085807), wk =   0.0023148
        k(  473) = (   0.2496262  -0.4761701   0.2171613), wk =   0.0023148
        k(  474) = (   0.2497110  -0.4761257   0.3257420), wk =   0.0023148
        k(  475) = (   0.2497958  -0.4760813   0.4343227), wk =   0.0023148
        k(  476) = (   0.2498806  -0.4760369   0.5429033), wk =   0.0023148
        k(  477) = (   0.2489478  -0.4765254  -0.6514840), wk =   0.0023148
        k(  478) = (   0.2490326  -0.4764810  -0.5429033), wk =   0.0023148
        k(  479) = (   0.2491174  -0.4764366  -0.4343227), wk =   0.0023148
        k(  480) = (   0.2492022  -0.4763922  -0.3257420), wk =   0.0023148
        k(  481) = (   0.2492870  -0.4763478  -0.2171613), wk =   0.0023148
        k(  482) = (   0.2493718  -0.4763034  -0.1085807), wk =   0.0023148
        k(  483) = (   0.2495414  -0.3750612  -0.0393544), wk =   0.0023148
        k(  484) = (   0.2496262  -0.3750167   0.0692262), wk =   0.0023148
        k(  485) = (   0.2497110  -0.3749723   0.1778069), wk =   0.0023148
        k(  486) = (   0.2497958  -0.3749279   0.2863876), wk =   0.0023148
        k(  487) = (   0.2498806  -0.3748835   0.3949682), wk =   0.0023148
        k(  488) = (   0.2499654  -0.3748391   0.5035489), wk =   0.0023148
        k(  489) = (   0.2490326  -0.3753277  -0.6908384), wk =   0.0023148
        k(  490) = (   0.2491174  -0.3752832  -0.5822578), wk =   0.0023148
        k(  491) = (   0.2492022  -0.3752388  -0.4736771), wk =   0.0023148
        k(  492) = (   0.2492870  -0.3751944  -0.3650964), wk =   0.0023148
        k(  493) = (   0.2493718  -0.3751500  -0.2565158), wk =   0.0023148
        k(  494) = (   0.2494566  -0.3751056  -0.1479351), wk =   0.0023148
        k(  495) = (   0.2496262  -0.2738634  -0.0787089), wk =   0.0023148
        k(  496) = (   0.2497110  -0.2738190   0.0298718), wk =   0.0023148
        k(  497) = (   0.2497958  -0.2737745   0.1384525), wk =   0.0023148
        k(  498) = (   0.2498806  -0.2737301   0.2470331), wk =   0.0023148
        k(  499) = (   0.2499654  -0.2736857   0.3556138), wk =   0.0023148
        k(  500) = (   0.2500502  -0.2736413   0.4641945), wk =   0.0023148
        k(  501) = (   0.2491174  -0.2741299  -0.7301929), wk =   0.0023148
        k(  502) = (   0.2492022  -0.2740855  -0.6216122), wk =   0.0023148
        k(  503) = (   0.2492870  -0.2740410  -0.5130315), wk =   0.0023148
        k(  504) = (   0.2493718  -0.2739966  -0.4044509), wk =   0.0023148
        k(  505) = (   0.2494566  -0.2739522  -0.2958702), wk =   0.0023148
        k(  506) = (   0.2495414  -0.2739078  -0.1872895), wk =   0.0023148
        k(  507) = (   0.3329480  -0.2302208  -0.1574177), wk =   0.0023148
        k(  508) = (   0.3330328  -0.2301764  -0.0488371), wk =   0.0023148
        k(  509) = (   0.3331176  -0.2301320   0.0597436), wk =   0.0023148
        k(  510) = (   0.3332024  -0.2300875   0.1683243), wk =   0.0023148
        k(  511) = (   0.3332872  -0.2300431   0.2769049), wk =   0.0023148
        k(  512) = (   0.3333720  -0.2299987   0.3854856), wk =   0.0023148
        k(  513) = (   0.3324392  -0.2304873  -0.8089017), wk =   0.0023148
        k(  514) = (   0.3325240  -0.2304429  -0.7003211), wk =   0.0023148
        k(  515) = (   0.3326088  -0.2303985  -0.5917404), wk =   0.0023148
        k(  516) = (   0.3326936  -0.2303540  -0.4831597), wk =   0.0023148
        k(  517) = (   0.3327784  -0.2303096  -0.3745791), wk =   0.0023148
        k(  518) = (   0.3328632  -0.2302652  -0.2659984), wk =   0.0023148
        k(  519) = (   0.3330328  -0.1290230  -0.1967722), wk =   0.0023148
        k(  520) = (   0.3331176  -0.1289786  -0.0881915), wk =   0.0023148
        k(  521) = (   0.3332024  -0.1289342   0.0203892), wk =   0.0023148
        k(  522) = (   0.3332872  -0.1288898   0.1289698), wk =   0.0023148
        k(  523) = (   0.3333720  -0.1288453   0.2375505), wk =   0.0023148
        k(  524) = (   0.3334568  -0.1288009   0.3461312), wk =   0.0023148
        k(  525) = (   0.3325240  -0.1292895  -0.8482562), wk =   0.0023148
        k(  526) = (   0.3326088  -0.1292451  -0.7396755), wk =   0.0023148
        k(  527) = (   0.3326936  -0.1292007  -0.6310948), wk =   0.0023148
        k(  528) = (   0.3327784  -0.1291563  -0.5225142), wk =   0.0023148
        k(  529) = (   0.3328632  -0.1291118  -0.4139335), wk =   0.0023148
        k(  530) = (   0.3329480  -0.1290674  -0.3053528), wk =   0.0023148
        k(  531) = (   0.3331176  -0.0278252  -0.2361266), wk =   0.0023148
        k(  532) = (   0.3332024  -0.0277808  -0.1275459), wk =   0.0023148
        k(  533) = (   0.3332872  -0.0277364  -0.0189653), wk =   0.0023148
        k(  534) = (   0.3333720  -0.0276920   0.0896154), wk =   0.0023148
        k(  535) = (   0.3334568  -0.0276476   0.1981961), wk =   0.0023148
        k(  536) = (   0.3335416  -0.0276031   0.3067767), wk =   0.0023148
        k(  537) = (   0.3326088  -0.0280917  -0.8876106), wk =   0.0023148
        k(  538) = (   0.3326936  -0.0280473  -0.7790299), wk =   0.0023148
        k(  539) = (   0.3327784  -0.0280029  -0.6704493), wk =   0.0023148
        k(  540) = (   0.3328632  -0.0279585  -0.5618686), wk =   0.0023148
        k(  541) = (   0.3329480  -0.0279141  -0.4532879), wk =   0.0023148
        k(  542) = (   0.3330328  -0.0278696  -0.3447073), wk =   0.0023148
        k(  543) = (   0.3332024   0.0733726  -0.2754810), wk =   0.0023148
        k(  544) = (   0.3332872   0.0734170  -0.1669004), wk =   0.0023148
        k(  545) = (   0.3333720   0.0734614  -0.0583197), wk =   0.0023148
        k(  546) = (   0.3334568   0.0735058   0.0502610), wk =   0.0023148
        k(  547) = (   0.3335416   0.0735502   0.1588416), wk =   0.0023148
        k(  548) = (   0.3336264   0.0735946   0.2674223), wk =   0.0023148
        k(  549) = (   0.3326936   0.0731061  -0.9269650), wk =   0.0023148
        k(  550) = (   0.3327784   0.0731505  -0.8183844), wk =   0.0023148
        k(  551) = (   0.3328632   0.0731949  -0.7098037), wk =   0.0023148
        k(  552) = (   0.3329480   0.0732393  -0.6012230), wk =   0.0023148
        k(  553) = (   0.3330328   0.0732837  -0.4926424), wk =   0.0023148
        k(  554) = (   0.3331176   0.0733281  -0.3840617), wk =   0.0023148
        k(  555) = (   0.3332872   0.1745703  -0.3148355), wk =   0.0023148
        k(  556) = (   0.3333720   0.1746148  -0.2062548), wk =   0.0023148
        k(  557) = (   0.3334568   0.1746592  -0.0976741), wk =   0.0023148
        k(  558) = (   0.3335416   0.1747036   0.0109065), wk =   0.0023148
        k(  559) = (   0.3336264   0.1747480   0.1194872), wk =   0.0023148
        k(  560) = (   0.3337112   0.1747924   0.2280679), wk =   0.0023148
        k(  561) = (   0.3327784   0.1743038  -0.9663195), wk =   0.0023148
        k(  562) = (   0.3328632   0.1743483  -0.8577388), wk =   0.0023148
        k(  563) = (   0.3329480   0.1743927  -0.7491581), wk =   0.0023148
        k(  564) = (   0.3330328   0.1744371  -0.6405775), wk =   0.0023148
        k(  565) = (   0.3331176   0.1744815  -0.5319968), wk =   0.0023148
        k(  566) = (   0.3332024   0.1745259  -0.4234161), wk =   0.0023148
        k(  567) = (   0.3333720   0.2757681  -0.3541899), wk =   0.0023148
        k(  568) = (   0.3334568   0.2758125  -0.2456092), wk =   0.0023148
        k(  569) = (   0.3335416   0.2758570  -0.1370286), wk =   0.0023148
        k(  570) = (   0.3336264   0.2759014  -0.0284479), wk =   0.0023148
        k(  571) = (   0.3337112   0.2759458   0.0801328), wk =   0.0023148
        k(  572) = (   0.3337960   0.2759902   0.1887134), wk =   0.0023148
        k(  573) = (   0.3328632   0.2755016  -1.0056739), wk =   0.0023148
        k(  574) = (   0.3329480   0.2755460  -0.8970932), wk =   0.0023148
        k(  575) = (   0.3330328   0.2755905  -0.7885126), wk =   0.0023148
        k(  576) = (   0.3331176   0.2756349  -0.6799319), wk =   0.0023148
        k(  577) = (   0.3332024   0.2756793  -0.5713512), wk =   0.0023148
        k(  578) = (   0.3332872   0.2757237  -0.4627706), wk =   0.0023148
        k(  579) = (   0.3324392  -0.8374075   0.0787089), wk =   0.0023148
        k(  580) = (   0.3325240  -0.8373631   0.1872895), wk =   0.0023148
        k(  581) = (   0.3326088  -0.8373187   0.2958702), wk =   0.0023148
        k(  582) = (   0.3326936  -0.8372742   0.4044509), wk =   0.0023148
        k(  583) = (   0.3327784  -0.8372298   0.5130315), wk =   0.0023148
        k(  584) = (   0.3328632  -0.8371854   0.6216122), wk =   0.0023148
        k(  585) = (   0.3319304  -0.8376740  -0.5727751), wk =   0.0023148
        k(  586) = (   0.3320152  -0.8376296  -0.4641945), wk =   0.0023148
        k(  587) = (   0.3321000  -0.8375852  -0.3556138), wk =   0.0023148
        k(  588) = (   0.3321848  -0.8375407  -0.2470331), wk =   0.0023148
        k(  589) = (   0.3322696  -0.8374963  -0.1384525), wk =   0.0023148
        k(  590) = (   0.3323544  -0.8374519  -0.0298718), wk =   0.0023148
        k(  591) = (   0.3325240  -0.7362097   0.0393544), wk =   0.0023148
        k(  592) = (   0.3326088  -0.7361653   0.1479351), wk =   0.0023148
        k(  593) = (   0.3326936  -0.7361209   0.2565158), wk =   0.0023148
        k(  594) = (   0.3327784  -0.7360765   0.3650964), wk =   0.0023148
        k(  595) = (   0.3328632  -0.7360320   0.4736771), wk =   0.0023148
        k(  596) = (   0.3329480  -0.7359876   0.5822578), wk =   0.0023148
        k(  597) = (   0.3320152  -0.7364762  -0.6121296), wk =   0.0023148
        k(  598) = (   0.3321000  -0.7364318  -0.5035489), wk =   0.0023148
        k(  599) = (   0.3321848  -0.7363874  -0.3949682), wk =   0.0023148
        k(  600) = (   0.3322696  -0.7363430  -0.2863876), wk =   0.0023148
        k(  601) = (   0.3323544  -0.7362985  -0.1778069), wk =   0.0023148
        k(  602) = (   0.3324392  -0.7362541  -0.0692262), wk =   0.0023148
        k(  603) = (   0.3326088  -0.6350119   0.0000000), wk =   0.0023148
        k(  604) = (   0.3326936  -0.6349675   0.1085807), wk =   0.0023148
        k(  605) = (   0.3327784  -0.6349231   0.2171613), wk =   0.0023148
        k(  606) = (   0.3328632  -0.6348787   0.3257420), wk =   0.0023148
        k(  607) = (   0.3329480  -0.6348343   0.4343227), wk =   0.0023148
        k(  608) = (   0.3330328  -0.6347898   0.5429033), wk =   0.0023148
        k(  609) = (   0.3321000  -0.6352784  -0.6514840), wk =   0.0023148
        k(  610) = (   0.3321848  -0.6352340  -0.5429033), wk =   0.0023148
        k(  611) = (   0.3322696  -0.6351896  -0.4343227), wk =   0.0023148
        k(  612) = (   0.3323544  -0.6351452  -0.3257420), wk =   0.0023148
        k(  613) = (   0.3324392  -0.6351008  -0.2171613), wk =   0.0023148
        k(  614) = (   0.3325240  -0.6350563  -0.1085807), wk =   0.0023148
        k(  615) = (   0.3326936  -0.5338141  -0.0393544), wk =   0.0023148
        k(  616) = (   0.3327784  -0.5337697   0.0692262), wk =   0.0023148
        k(  617) = (   0.3328632  -0.5337253   0.1778069), wk =   0.0023148
        k(  618) = (   0.3329480  -0.5336809   0.2863876), wk =   0.0023148
        k(  619) = (   0.3330328  -0.5336365   0.3949682), wk =   0.0023148
        k(  620) = (   0.3331176  -0.5335921   0.5035489), wk =   0.0023148
        k(  621) = (   0.3321848  -0.5340806  -0.6908384), wk =   0.0023148
        k(  622) = (   0.3322696  -0.5340362  -0.5822578), wk =   0.0023148
        k(  623) = (   0.3323544  -0.5339918  -0.4736771), wk =   0.0023148
        k(  624) = (   0.3324392  -0.5339474  -0.3650964), wk =   0.0023148
        k(  625) = (   0.3325240  -0.5339030  -0.2565158), wk =   0.0023148
        k(  626) = (   0.3326088  -0.5338586  -0.1479351), wk =   0.0023148
        k(  627) = (   0.3327784  -0.4326164  -0.0787089), wk =   0.0023148
        k(  628) = (   0.3328632  -0.4325719   0.0298718), wk =   0.0023148
        k(  629) = (   0.3329480  -0.4325275   0.1384525), wk =   0.0023148
        k(  630) = (   0.3330328  -0.4324831   0.2470331), wk =   0.0023148
        k(  631) = (   0.3331176  -0.4324387   0.3556138), wk =   0.0023148
        k(  632) = (   0.3332024  -0.4323943   0.4641945), wk =   0.0023148
        k(  633) = (   0.3322696  -0.4328829  -0.7301929), wk =   0.0023148
        k(  634) = (   0.3323544  -0.4328384  -0.6216122), wk =   0.0023148
        k(  635) = (   0.3324392  -0.4327940  -0.5130315), wk =   0.0023148
        k(  636) = (   0.3325240  -0.4327496  -0.4044509), wk =   0.0023148
        k(  637) = (   0.3326088  -0.4327052  -0.2958702), wk =   0.0023148
        k(  638) = (   0.3326936  -0.4326608  -0.1872895), wk =   0.0023148
        k(  639) = (   0.3328632  -0.3314186  -0.1180633), wk =   0.0023148
        k(  640) = (   0.3329480  -0.3313742  -0.0094826), wk =   0.0023148
        k(  641) = (   0.3330328  -0.3313297   0.0990980), wk =   0.0023148
        k(  642) = (   0.3331176  -0.3312853   0.2076787), wk =   0.0023148
        k(  643) = (   0.3332024  -0.3312409   0.3162594), wk =   0.0023148
        k(  644) = (   0.3332872  -0.3311965   0.4248400), wk =   0.0023148
        k(  645) = (   0.3323544  -0.3316851  -0.7695473), wk =   0.0023148
        k(  646) = (   0.3324392  -0.3316407  -0.6609666), wk =   0.0023148
        k(  647) = (   0.3325240  -0.3315962  -0.5523860), wk =   0.0023148
        k(  648) = (   0.3326088  -0.3315518  -0.4438053), wk =   0.0023148
        k(  649) = (   0.3326936  -0.3315074  -0.3352246), wk =   0.0023148
        k(  650) = (   0.3327784  -0.3314630  -0.2266440), wk =   0.0023148
        k(  651) = (   0.4161850  -0.2877760  -0.1967722), wk =   0.0023148
        k(  652) = (   0.4162698  -0.2877316  -0.0881915), wk =   0.0023148
        k(  653) = (   0.4163546  -0.2876872   0.0203892), wk =   0.0023148
        k(  654) = (   0.4164394  -0.2876427   0.1289698), wk =   0.0023148
        k(  655) = (   0.4165242  -0.2875983   0.2375505), wk =   0.0023148
        k(  656) = (   0.4166090  -0.2875539   0.3461312), wk =   0.0023148
        k(  657) = (   0.4156762  -0.2880425  -0.8482562), wk =   0.0023148
        k(  658) = (   0.4157610  -0.2879981  -0.7396755), wk =   0.0023148
        k(  659) = (   0.4158458  -0.2879537  -0.6310948), wk =   0.0023148
        k(  660) = (   0.4159306  -0.2879092  -0.5225142), wk =   0.0023148
        k(  661) = (   0.4160154  -0.2878648  -0.4139335), wk =   0.0023148
        k(  662) = (   0.4161002  -0.2878204  -0.3053528), wk =   0.0023148
        k(  663) = (   0.4162698  -0.1865782  -0.2361266), wk =   0.0023148
        k(  664) = (   0.4163546  -0.1865338  -0.1275459), wk =   0.0023148
        k(  665) = (   0.4164394  -0.1864894  -0.0189653), wk =   0.0023148
        k(  666) = (   0.4165242  -0.1864450   0.0896154), wk =   0.0023148
        k(  667) = (   0.4166090  -0.1864005   0.1981961), wk =   0.0023148
        k(  668) = (   0.4166938  -0.1863561   0.3067767), wk =   0.0023148
        k(  669) = (   0.4157610  -0.1868447  -0.8876106), wk =   0.0023148
        k(  670) = (   0.4158458  -0.1868003  -0.7790299), wk =   0.0023148
        k(  671) = (   0.4159306  -0.1867559  -0.6704493), wk =   0.0023148
        k(  672) = (   0.4160154  -0.1867115  -0.5618686), wk =   0.0023148
        k(  673) = (   0.4161002  -0.1866670  -0.4532879), wk =   0.0023148
        k(  674) = (   0.4161850  -0.1866226  -0.3447073), wk =   0.0023148
        k(  675) = (   0.4163546  -0.0853804  -0.2754810), wk =   0.0023148
        k(  676) = (   0.4164394  -0.0853360  -0.1669004), wk =   0.0023148
        k(  677) = (   0.4165242  -0.0852916  -0.0583197), wk =   0.0023148
        k(  678) = (   0.4166090  -0.0852472   0.0502610), wk =   0.0023148
        k(  679) = (   0.4166938  -0.0852028   0.1588416), wk =   0.0023148
        k(  680) = (   0.4167786  -0.0851583   0.2674223), wk =   0.0023148
        k(  681) = (   0.4158458  -0.0856469  -0.9269650), wk =   0.0023148
        k(  682) = (   0.4159306  -0.0856025  -0.8183844), wk =   0.0023148
        k(  683) = (   0.4160154  -0.0855581  -0.7098037), wk =   0.0023148
        k(  684) = (   0.4161002  -0.0855137  -0.6012230), wk =   0.0023148
        k(  685) = (   0.4161850  -0.0854693  -0.4926424), wk =   0.0023148
        k(  686) = (   0.4162698  -0.0854248  -0.3840617), wk =   0.0023148
        k(  687) = (   0.4164394   0.0158174  -0.3148355), wk =   0.0023148
        k(  688) = (   0.4165242   0.0158618  -0.2062548), wk =   0.0023148
        k(  689) = (   0.4166090   0.0159062  -0.0976741), wk =   0.0023148
        k(  690) = (   0.4166938   0.0159506   0.0109065), wk =   0.0023148
        k(  691) = (   0.4167786   0.0159950   0.1194872), wk =   0.0023148
        k(  692) = (   0.4168634   0.0160394   0.2280679), wk =   0.0023148
        k(  693) = (   0.4159306   0.0155509  -0.9663195), wk =   0.0023148
        k(  694) = (   0.4160154   0.0155953  -0.8577388), wk =   0.0023148
        k(  695) = (   0.4161002   0.0156397  -0.7491581), wk =   0.0023148
        k(  696) = (   0.4161850   0.0156841  -0.6405775), wk =   0.0023148
        k(  697) = (   0.4162698   0.0157285  -0.5319968), wk =   0.0023148
        k(  698) = (   0.4163546   0.0157729  -0.4234161), wk =   0.0023148
        k(  699) = (   0.4165242   0.1170151  -0.3541899), wk =   0.0023148
        k(  700) = (   0.4166090   0.1170596  -0.2456092), wk =   0.0023148
        k(  701) = (   0.4166938   0.1171040  -0.1370286), wk =   0.0023148
        k(  702) = (   0.4167786   0.1171484  -0.0284479), wk =   0.0023148
        k(  703) = (   0.4168634   0.1171928   0.0801328), wk =   0.0023148
        k(  704) = (   0.4169482   0.1172372   0.1887134), wk =   0.0023148
        k(  705) = (   0.4160154   0.1167486  -1.0056739), wk =   0.0023148
        k(  706) = (   0.4161002   0.1167931  -0.8970932), wk =   0.0023148
        k(  707) = (   0.4161850   0.1168375  -0.7885126), wk =   0.0023148
        k(  708) = (   0.4162698   0.1168819  -0.6799319), wk =   0.0023148
        k(  709) = (   0.4163546   0.1169263  -0.5713512), wk =   0.0023148
        k(  710) = (   0.4164394   0.1169707  -0.4627706), wk =   0.0023148
        k(  711) = (   0.4166090   0.2182129  -0.3935443), wk =   0.0023148
        k(  712) = (   0.4166938   0.2182573  -0.2849637), wk =   0.0023148
        k(  713) = (   0.4167786   0.2183018  -0.1763830), wk =   0.0023148
        k(  714) = (   0.4168634   0.2183462  -0.0678023), wk =   0.0023148
        k(  715) = (   0.4169482   0.2183906   0.0407783), wk =   0.0023148
        k(  716) = (   0.4170330   0.2184350   0.1493590), wk =   0.0023148
        k(  717) = (   0.4161002   0.2179464  -1.0450283), wk =   0.0023148
        k(  718) = (   0.4161850   0.2179908  -0.9364477), wk =   0.0023148
        k(  719) = (   0.4162698   0.2180353  -0.8278670), wk =   0.0023148
        k(  720) = (   0.4163546   0.2180797  -0.7192863), wk =   0.0023148
        k(  721) = (   0.4164394   0.2181241  -0.6107057), wk =   0.0023148
        k(  722) = (   0.4165242   0.2181685  -0.5021250), wk =   0.0023148
        k(  723) = (   0.4156762  -0.8949627   0.0393544), wk =   0.0023148
        k(  724) = (   0.4157610  -0.8949183   0.1479351), wk =   0.0023148
        k(  725) = (   0.4158458  -0.8948739   0.2565158), wk =   0.0023148
        k(  726) = (   0.4159306  -0.8948294   0.3650964), wk =   0.0023148
        k(  727) = (   0.4160154  -0.8947850   0.4736771), wk =   0.0023148
        k(  728) = (   0.4161002  -0.8947406   0.5822578), wk =   0.0023148
        k(  729) = (   0.4151674  -0.8952292  -0.6121296), wk =   0.0023148
        k(  730) = (   0.4152522  -0.8951848  -0.5035489), wk =   0.0023148
        k(  731) = (   0.4153370  -0.8951404  -0.3949682), wk =   0.0023148
        k(  732) = (   0.4154218  -0.8950959  -0.2863876), wk =   0.0023148
        k(  733) = (   0.4155066  -0.8950515  -0.1778069), wk =   0.0023148
        k(  734) = (   0.4155914  -0.8950071  -0.0692262), wk =   0.0023148
        k(  735) = (   0.4157610  -0.7937649   0.0000000), wk =   0.0023148
        k(  736) = (   0.4158458  -0.7937205   0.1085807), wk =   0.0023148
        k(  737) = (   0.4159306  -0.7936761   0.2171613), wk =   0.0023148
        k(  738) = (   0.4160154  -0.7936317   0.3257420), wk =   0.0023148
        k(  739) = (   0.4161002  -0.7935872   0.4343227), wk =   0.0023148
        k(  740) = (   0.4161850  -0.7935428   0.5429033), wk =   0.0023148
        k(  741) = (   0.4152522  -0.7940314  -0.6514840), wk =   0.0023148
        k(  742) = (   0.4153370  -0.7939870  -0.5429033), wk =   0.0023148
        k(  743) = (   0.4154218  -0.7939426  -0.4343227), wk =   0.0023148
        k(  744) = (   0.4155066  -0.7938982  -0.3257420), wk =   0.0023148
        k(  745) = (   0.4155914  -0.7938537  -0.2171613), wk =   0.0023148
        k(  746) = (   0.4156762  -0.7938093  -0.1085807), wk =   0.0023148
        k(  747) = (   0.4158458  -0.6925671  -0.0393544), wk =   0.0023148
        k(  748) = (   0.4159306  -0.6925227   0.0692262), wk =   0.0023148
        k(  749) = (   0.4160154  -0.6924783   0.1778069), wk =   0.0023148
        k(  750) = (   0.4161002  -0.6924339   0.2863876), wk =   0.0023148
        k(  751) = (   0.4161850  -0.6923895   0.3949682), wk =   0.0023148
        k(  752) = (   0.4162698  -0.6923450   0.5035489), wk =   0.0023148
        k(  753) = (   0.4153370  -0.6928336  -0.6908384), wk =   0.0023148
        k(  754) = (   0.4154218  -0.6927892  -0.5822578), wk =   0.0023148
        k(  755) = (   0.4155066  -0.6927448  -0.4736771), wk =   0.0023148
        k(  756) = (   0.4155914  -0.6927004  -0.3650964), wk =   0.0023148
        k(  757) = (   0.4156762  -0.6926560  -0.2565158), wk =   0.0023148
        k(  758) = (   0.4157610  -0.6926115  -0.1479351), wk =   0.0023148
        k(  759) = (   0.4159306  -0.5913693  -0.0787089), wk =   0.0023148
        k(  760) = (   0.4160154  -0.5913249   0.0298718), wk =   0.0023148
        k(  761) = (   0.4161002  -0.5912805   0.1384525), wk =   0.0023148
        k(  762) = (   0.4161850  -0.5912361   0.2470331), wk =   0.0023148
        k(  763) = (   0.4162698  -0.5911917   0.3556138), wk =   0.0023148
        k(  764) = (   0.4163546  -0.5911473   0.4641945), wk =   0.0023148
        k(  765) = (   0.4154218  -0.5916358  -0.7301929), wk =   0.0023148
        k(  766) = (   0.4155066  -0.5915914  -0.6216122), wk =   0.0023148
        k(  767) = (   0.4155914  -0.5915470  -0.5130315), wk =   0.0023148
        k(  768) = (   0.4156762  -0.5915026  -0.4044509), wk =   0.0023148
        k(  769) = (   0.4157610  -0.5914582  -0.2958702), wk =   0.0023148
        k(  770) = (   0.4158458  -0.5914138  -0.1872895), wk =   0.0023148
        k(  771) = (   0.4160154  -0.4901716  -0.1180633), wk =   0.0023148
        k(  772) = (   0.4161002  -0.4901271  -0.0094826), wk =   0.0023148
        k(  773) = (   0.4161850  -0.4900827   0.0990980), wk =   0.0023148
        k(  774) = (   0.4162698  -0.4900383   0.2076787), wk =   0.0023148
        k(  775) = (   0.4163546  -0.4899939   0.3162594), wk =   0.0023148
        k(  776) = (   0.4164394  -0.4899495   0.4248400), wk =   0.0023148
        k(  777) = (   0.4155066  -0.4904381  -0.7695473), wk =   0.0023148
        k(  778) = (   0.4155914  -0.4903936  -0.6609666), wk =   0.0023148
        k(  779) = (   0.4156762  -0.4903492  -0.5523860), wk =   0.0023148
        k(  780) = (   0.4157610  -0.4903048  -0.4438053), wk =   0.0023148
        k(  781) = (   0.4158458  -0.4902604  -0.3352246), wk =   0.0023148
        k(  782) = (   0.4159306  -0.4902160  -0.2266440), wk =   0.0023148
        k(  783) = (   0.4161002  -0.3889738  -0.1574177), wk =   0.0023148
        k(  784) = (   0.4161850  -0.3889294  -0.0488371), wk =   0.0023148
        k(  785) = (   0.4162698  -0.3888849   0.0597436), wk =   0.0023148
        k(  786) = (   0.4163546  -0.3888405   0.1683243), wk =   0.0023148
        k(  787) = (   0.4164394  -0.3887961   0.2769049), wk =   0.0023148
        k(  788) = (   0.4165242  -0.3887517   0.3854856), wk =   0.0023148
        k(  789) = (   0.4155914  -0.3892403  -0.8089017), wk =   0.0023148
        k(  790) = (   0.4156762  -0.3891959  -0.7003211), wk =   0.0023148
        k(  791) = (   0.4157610  -0.3891514  -0.5917404), wk =   0.0023148
        k(  792) = (   0.4158458  -0.3891070  -0.4831597), wk =   0.0023148
        k(  793) = (   0.4159306  -0.3890626  -0.3745791), wk =   0.0023148
        k(  794) = (   0.4160154  -0.3890182  -0.2659984), wk =   0.0023148
        k(  795) = (  -0.4994220   0.3453312   0.2361266), wk =   0.0011574
        k(  796) = (  -0.4993372   0.3453756   0.3447073), wk =   0.0023148
        k(  797) = (  -0.4992524   0.3454200   0.4532879), wk =   0.0023148
        k(  798) = (  -0.4991676   0.3454644   0.5618686), wk =   0.0023148
        k(  799) = (  -0.4990828   0.3455089   0.6704493), wk =   0.0023148
        k(  800) = (  -0.4989980   0.3455533   0.7790299), wk =   0.0023148
        k(  801) = (  -0.4999308   0.3450647  -0.4153574), wk =   0.0011574
        k(  802) = (  -0.4993372   0.4465290   0.1967722), wk =   0.0023148
        k(  803) = (  -0.4992524   0.4465734   0.3053528), wk =   0.0023148
        k(  804) = (  -0.4991676   0.4466178   0.4139335), wk =   0.0023148
        k(  805) = (  -0.4990828   0.4466622   0.5225142), wk =   0.0023148
        k(  806) = (  -0.4989980   0.4467066   0.6310948), wk =   0.0023148
        k(  807) = (  -0.4989132   0.4467511   0.7396755), wk =   0.0023148
        k(  808) = (  -0.4998460   0.4462625  -0.4547118), wk =   0.0023148
        k(  809) = (  -0.4997612   0.4463069  -0.3461312), wk =   0.0023148
        k(  810) = (  -0.4996764   0.4463513  -0.2375505), wk =   0.0023148
        k(  811) = (  -0.4995916   0.4463957  -0.1289698), wk =   0.0023148
        k(  812) = (  -0.4995068   0.4464401  -0.0203892), wk =   0.0023148
        k(  813) = (  -0.4994220   0.4464846   0.0881915), wk =   0.0023148
        k(  814) = (  -0.4992524   0.5477268   0.1574177), wk =   0.0023148
        k(  815) = (  -0.4991676   0.5477712   0.2659984), wk =   0.0023148
        k(  816) = (  -0.4990828   0.5478156   0.3745791), wk =   0.0023148
        k(  817) = (  -0.4989980   0.5478600   0.4831597), wk =   0.0023148
        k(  818) = (  -0.4989132   0.5479044   0.5917404), wk =   0.0023148
        k(  819) = (  -0.4988284   0.5479488   0.7003211), wk =   0.0023148
        k(  820) = (  -0.4997612   0.5474603  -0.4940663), wk =   0.0023148
        k(  821) = (  -0.4996764   0.5475047  -0.3854856), wk =   0.0023148
        k(  822) = (  -0.4995916   0.5475491  -0.2769049), wk =   0.0023148
        k(  823) = (  -0.4995068   0.5475935  -0.1683243), wk =   0.0023148
        k(  824) = (  -0.4994220   0.5476379  -0.0597436), wk =   0.0023148
        k(  825) = (  -0.4993372   0.5476823   0.0488371), wk =   0.0023148
        k(  826) = (  -0.4991676   0.6489245   0.1180633), wk =   0.0023148
        k(  827) = (  -0.4990828   0.6489690   0.2266440), wk =   0.0023148
        k(  828) = (  -0.4989980   0.6490134   0.3352246), wk =   0.0023148
        k(  829) = (  -0.4989132   0.6490578   0.4438053), wk =   0.0023148
        k(  830) = (  -0.4988284   0.6491022   0.5523860), wk =   0.0023148
        k(  831) = (  -0.4987436   0.6491466   0.6609666), wk =   0.0023148
        k(  832) = (  -0.4996764   0.6486580  -0.5334207), wk =   0.0023148
        k(  833) = (  -0.4995916   0.6487025  -0.4248400), wk =   0.0023148
        k(  834) = (  -0.4995068   0.6487469  -0.3162594), wk =   0.0023148
        k(  835) = (  -0.4994220   0.6487913  -0.2076787), wk =   0.0023148
        k(  836) = (  -0.4993372   0.6488357  -0.0990980), wk =   0.0023148
        k(  837) = (  -0.4992524   0.6488801   0.0094826), wk =   0.0023148
        k(  838) = (  -0.4990828   0.7501223   0.0787089), wk =   0.0023148
        k(  839) = (  -0.4989980   0.7501667   0.1872895), wk =   0.0023148
        k(  840) = (  -0.4989132   0.7502112   0.2958702), wk =   0.0023148
        k(  841) = (  -0.4988284   0.7502556   0.4044509), wk =   0.0023148
        k(  842) = (  -0.4987436   0.7503000   0.5130315), wk =   0.0023148
        k(  843) = (  -0.4986588   0.7503444   0.6216122), wk =   0.0023148
        k(  844) = (  -0.4995916   0.7498558  -0.5727751), wk =   0.0023148
        k(  845) = (  -0.4995068   0.7499002  -0.4641945), wk =   0.0023148
        k(  846) = (  -0.4994220   0.7499447  -0.3556138), wk =   0.0023148
        k(  847) = (  -0.4993372   0.7499891  -0.2470331), wk =   0.0023148
        k(  848) = (  -0.4992524   0.7500335  -0.1384525), wk =   0.0023148
        k(  849) = (  -0.4991676   0.7500779  -0.0298718), wk =   0.0023148
        k(  850) = (  -0.4989980   0.8513201   0.0393544), wk =   0.0023148
        k(  851) = (  -0.4989132   0.8513645   0.1479351), wk =   0.0023148
        k(  852) = (  -0.4988284   0.8514089   0.2565158), wk =   0.0023148
        k(  853) = (  -0.4987436   0.8514534   0.3650964), wk =   0.0023148
        k(  854) = (  -0.4986588   0.8514978   0.4736771), wk =   0.0023148
        k(  855) = (  -0.4985740   0.8515422   0.5822578), wk =   0.0023148
        k(  856) = (  -0.4995068   0.8510536  -0.6121296), wk =   0.0023148
        k(  857) = (  -0.4994220   0.8510980  -0.5035489), wk =   0.0023148
        k(  858) = (  -0.4993372   0.8511424  -0.3949682), wk =   0.0023148
        k(  859) = (  -0.4992524   0.8511869  -0.2863876), wk =   0.0023148
        k(  860) = (  -0.4991676   0.8512313  -0.1778069), wk =   0.0023148
        k(  861) = (  -0.4990828   0.8512757  -0.0692262), wk =   0.0023148
        k(  862) = (  -0.4999308  -0.2618555   0.4722532), wk =   0.0011574
        k(  863) = (  -0.4998460  -0.2618111   0.5808339), wk =   0.0023148
        k(  864) = (  -0.4997612  -0.2617667   0.6894145), wk =   0.0023148
        k(  865) = (  -0.4996764  -0.2617223   0.7979952), wk =   0.0023148
        k(  866) = (  -0.4995916  -0.2616778   0.9065759), wk =   0.0023148
        k(  867) = (  -0.4995068  -0.2616334   1.0151565), wk =   0.0023148
        k(  868) = (  -0.5004396  -0.2621220  -0.1792308), wk =   0.0011574

                       cryst. coord.
        k(    1) = (   0.0000000   0.0000000   0.0000000), wk =   0.0011574
        k(    2) = (   0.0000000   0.0000000   0.0833333), wk =   0.0023148
        k(    3) = (   0.0000000   0.0000000   0.1666667), wk =   0.0023148
        k(    4) = (   0.0000000   0.0000000   0.2500000), wk =   0.0023148
        k(    5) = (   0.0000000   0.0000000   0.3333333), wk =   0.0023148
        k(    6) = (   0.0000000   0.0000000   0.4166667), wk =   0.0023148
        k(    7) = (   0.0000000   0.0000000  -0.5000000), wk =   0.0011574
        k(    8) = (   0.0000000   0.0833333   0.0000000), wk =   0.0023148
        k(    9) = (   0.0000000   0.0833333   0.0833333), wk =   0.0023148
        k(   10) = (   0.0000000   0.0833333   0.1666667), wk =   0.0023148
        k(   11) = (   0.0000000   0.0833333   0.2500000), wk =   0.0023148
        k(   12) = (   0.0000000   0.0833333   0.3333333), wk =   0.0023148
        k(   13) = (   0.0000000   0.0833333   0.4166667), wk =   0.0023148
        k(   14) = (  -0.0000000   0.0833333  -0.5000000), wk =   0.0023148
        k(   15) = (   0.0000000   0.0833333  -0.4166667), wk =   0.0023148
        k(   16) = (  -0.0000000   0.0833333  -0.3333333), wk =   0.0023148
        k(   17) = (   0.0000000   0.0833333  -0.2500000), wk =   0.0023148
        k(   18) = (  -0.0000000   0.0833333  -0.1666667), wk =   0.0023148
        k(   19) = (   0.0000000   0.0833333  -0.0833333), wk =   0.0023148
        k(   20) = (   0.0000000   0.1666667   0.0000000), wk =   0.0023148
        k(   21) = (   0.0000000   0.1666667   0.0833333), wk =   0.0023148
        k(   22) = (   0.0000000   0.1666667   0.1666667), wk =   0.0023148
        k(   23) = (   0.0000000   0.1666667   0.2500000), wk =   0.0023148
        k(   24) = (   0.0000000   0.1666667   0.3333333), wk =   0.0023148
        k(   25) = (   0.0000000   0.1666667   0.4166667), wk =   0.0023148
        k(   26) = (   0.0000000   0.1666667  -0.5000000), wk =   0.0023148
        k(   27) = (   0.0000000   0.1666667  -0.4166667), wk =   0.0023148
        k(   28) = (  -0.0000000   0.1666667  -0.3333333), wk =   0.0023148
        k(   29) = (  -0.0000000   0.1666667  -0.2500000), wk =   0.0023148
        k(   30) = (  -0.0000000   0.1666667  -0.1666667), wk =   0.0023148
        k(   31) = (  -0.0000000   0.1666667  -0.0833333), wk =   0.0023148
        k(   32) = (  -0.0000000   0.2500000   0.0000000), wk =   0.0023148
        k(   33) = (   0.0000000   0.2500000   0.0833333), wk =   0.0023148
        k(   34) = (   0.0000000   0.2500000   0.1666667), wk =   0.0023148
        k(   35) = (   0.0000000   0.2500000   0.2500000), wk =   0.0023148
        k(   36) = (   0.0000000   0.2500000   0.3333333), wk =   0.0023148
        k(   37) = (   0.0000000   0.2500000   0.4166667), wk =   0.0023148
        k(   38) = (  -0.0000000   0.2500000  -0.5000000), wk =   0.0023148
        k(   39) = (  -0.0000000   0.2500000  -0.4166667), wk =   0.0023148
        k(   40) = (  -0.0000000   0.2500000  -0.3333333), wk =   0.0023148
        k(   41) = (   0.0000000   0.2500000  -0.2500000), wk =   0.0023148
        k(   42) = (   0.0000000   0.2500000  -0.1666667), wk =   0.0023148
        k(   43) = (  -0.0000000   0.2500000  -0.0833333), wk =   0.0023148
        k(   44) = (   0.0000000   0.3333333   0.0000000), wk =   0.0023148
        k(   45) = (   0.0000000   0.3333333   0.0833333), wk =   0.0023148
        k(   46) = (   0.0000000   0.3333333   0.1666667), wk =   0.0023148
        k(   47) = (   0.0000000   0.3333333   0.2500000), wk =   0.0023148
        k(   48) = (   0.0000000   0.3333333   0.3333333), wk =   0.0023148
        k(   49) = (   0.0000000   0.3333333   0.4166667), wk =   0.0023148
        k(   50) = (  -0.0000000   0.3333333  -0.5000000), wk =   0.0023148
        k(   51) = (   0.0000000   0.3333333  -0.4166667), wk =   0.0023148
        k(   52) = (  -0.0000000   0.3333333  -0.3333333), wk =   0.0023148
        k(   53) = (   0.0000000   0.3333333  -0.2500000), wk =   0.0023148
        k(   54) = (  -0.0000000   0.3333333  -0.1666667), wk =   0.0023148
        k(   55) = (   0.0000000   0.3333333  -0.0833333), wk =   0.0023148
        k(   56) = (  -0.0000000   0.4166667   0.0000000), wk =   0.0023148
        k(   57) = (   0.0000000   0.4166667   0.0833333), wk =   0.0023148
        k(   58) = (   0.0000000   0.4166667   0.1666667), wk =   0.0023148
        k(   59) = (   0.0000000   0.4166667   0.2500000), wk =   0.0023148
        k(   60) = (   0.0000000   0.4166667   0.3333333), wk =   0.0023148
        k(   61) = (   0.0000000   0.4166667   0.4166667), wk =   0.0023148
        k(   62) = (  -0.0000000   0.4166667  -0.5000000), wk =   0.0023148
        k(   63) = (   0.0000000   0.4166667  -0.4166667), wk =   0.0023148
        k(   64) = (  -0.0000000   0.4166667  -0.3333333), wk =   0.0023148
        k(   65) = (   0.0000000   0.4166667  -0.2500000), wk =   0.0023148
        k(   66) = (  -0.0000000   0.4166667  -0.1666667), wk =   0.0023148
        k(   67) = (  -0.0000000   0.4166667  -0.0833333), wk =   0.0023148
        k(   68) = (   0.0000000  -0.5000000  -0.0000000), wk =   0.0011574
        k(   69) = (  -0.0000000  -0.5000000   0.0833333), wk =   0.0023148
        k(   70) = (   0.0000000  -0.5000000   0.1666667), wk =   0.0023148
        k(   71) = (  -0.0000000  -0.5000000   0.2500000), wk =   0.0023148
        k(   72) = (   0.0000000  -0.5000000   0.3333333), wk =   0.0023148
        k(   73) = (  -0.0000000  -0.5000000   0.4166667), wk =   0.0023148
        k(   74) = (  -0.0000000  -0.5000000  -0.5000000), wk =   0.0011574
        k(   75) = (   0.0833333   0.0000000   0.0000000), wk =   0.0023148
        k(   76) = (   0.0833333   0.0000000   0.0833333), wk =   0.0023148
        k(   77) = (   0.0833333   0.0000000   0.1666667), wk =   0.0023148
        k(   78) = (   0.0833333   0.0000000   0.2500000), wk =   0.0023148
        k(   79) = (   0.0833333  -0.0000000   0.3333333), wk =   0.0023148
        k(   80) = (   0.0833333   0.0000000   0.4166667), wk =   0.0023148
        k(   81) = (   0.0833333   0.0000000  -0.5000000), wk =   0.0023148
        k(   82) = (   0.0833333   0.0000000  -0.4166667), wk =   0.0023148
        k(   83) = (   0.0833333  -0.0000000  -0.3333333), wk =   0.0023148
        k(   84) = (   0.0833333   0.0000000  -0.2500000), wk =   0.0023148
        k(   85) = (   0.0833333  -0.0000000  -0.1666667), wk =   0.0023148
        k(   86) = (   0.0833333  -0.0000000  -0.0833333), wk =   0.0023148
[...]
     1.0000   1.0000   1.0000   1.0000   1.0000   1.0000   1.0000   1.0000

          k =-0.4988 0.7503 0.4045 (  7200 PWs)   bands (ev):

   -11.0011 -10.1754  -9.5556  -9.3318  -9.0775  -8.9230   1.5310   1.6724
     1.8979   2.8163   3.1308   3.4025   3.8355   4.2593   4.6755   5.0155
     5.1497   5.6043   5.8553   6.1112   6.3969   6.6081   6.7861   6.9129

     occupation numbers 
     1.0000   1.0000   1.0000   1.0000   1.0000   1.0000   1.0000   1.0000
     1.0000   1.0000   1.0000   1.0000   1.0000   1.0000   1.0000   1.0000
     1.0000   1.0000   1.0000   1.0000   1.0000   1.0000   1.0000   1.0000

          k =-0.4987 0.7503 0.5130 (  7187 PWs)   bands (ev):

   -11.0040 -10.3065  -9.4596  -9.2603  -9.0630  -8.9515   1.6541   1.6770
     2.1023   2.7597   3.1584   3.2208   3.7464   4.3105   4.4814   4.9071
     5.1566   5.5845   5.7575   6.0299   6.5897   6.5908   6.8509   6.9219

     occupation numbers 
     1.0000   1.0000   1.0000   1.0000   1.0000   1.0000   1.0000   1.0000
     1.0000   1.0000   1.0000   1.0000   1.0000   1.0000   1.0000   1.0000
     1.0000   1.0000   1.0000   1.0000   1.0000   1.0000   1.0000   1.0000

          k =-0.4987 0.7503 0.6216 (  7208 PWs)   bands (ev):

   -10.9511 -10.4128  -9.3730  -9.2831  -9.0596  -8.9706   1.6343   1.8063
     2.2665   2.8248   3.0800   3.2670   3.5034   4.2157   4.5243   4.9563
     5.2071   5.4111   5.6425   6.0205   6.5847   6.7334   6.8133   6.9202

     occupation numbers 
     1.0000   1.0000   1.0000   1.0000   1.0000   1.0000   1.0000   1.0000
     1.0000   1.0000   1.0000   1.0000   1.0000   1.0000   1.0000   1.0000
     1.0000   1.0000   1.0000   1.0000   1.0000   1.0000   1.0000   1.0000

          k =-0.4996 0.7499-0.5728 (  7207 PWs)   bands (ev):

   -10.8447 -10.4820  -9.3867  -9.3450  -9.0567  -8.9629   1.5790   1.9002
     2.2673   2.9188   3.2039   3.3370   3.3892   4.1627   4.5060   5.0470
     5.1235   5.4019   5.6264   6.0693   6.5287   6.7157   6.7727   6.8498

     occupation numbers 
     1.0000   1.0000   1.0000   1.0000   1.0000   1.0000   1.0000   1.0000
     1.0000   1.0000   1.0000   1.0000   1.0000   1.0000   1.0000   1.0000
     1.0000   1.0000   1.0000   1.0000   1.0000   1.0000   1.0000   1.0000

          k =-0.4995 0.7499-0.4642 (  7201 PWs)   bands (ev):

   -10.6910 -10.5103  -9.4976  -9.4431  -9.0203  -8.9589   1.5773   1.8024
     2.3532   2.6877   3.3351   3.4601   3.7254   4.1192   4.5028   4.8101
     5.2259   5.3857   5.9048   6.1416   6.4148   6.5361   6.7328   6.7729

     occupation numbers 
     1.0000   1.0000   1.0000   1.0000   1.0000   1.0000   1.0000   1.0000
     1.0000   1.0000   1.0000   1.0000   1.0000   1.0000   1.0000   1.0000
     1.0000   1.0000   1.0000   1.0000   1.0000   1.0000   1.0000   1.0000

          k =-0.4994 0.7499-0.3556 (  7186 PWs)   bands (ev):

   -10.5019 -10.5019  -9.6035  -9.6035  -8.9794  -8.9794   1.6520   1.6520
     2.4565   2.4565   3.4505   3.4506   4.0316   4.0316   4.6861   4.6861
     5.3345   5.3345   6.2089   6.2089   6.3466   6.3467   6.6815   6.6815

     occupation numbers 
     1.0000   1.0000   1.0000   1.0000   1.0000   1.0000   1.0000   1.0000
     1.0000   1.0000   1.0000   1.0000   1.0000   1.0000   1.0000   1.0000
     1.0000   1.0000   1.0000   1.0000   1.0000   1.0000   1.0000   1.0000

          k =-0.4993 0.7500-0.2470 (  7191 PWs)   bands (ev):

   -10.4744 -10.2983  -9.7744  -9.6767  -9.0344  -8.9523   1.5367   1.7557
     2.3305   2.5179   3.3587   3.4370   3.9167   4.0701   4.7953   5.0034
     5.3521   5.4114   6.1118   6.2471   6.3709   6.4560   6.6162   6.7036

     occupation numbers 
     1.0000   1.0000   1.0000   1.0000   1.0000   1.0000   1.0000   1.0000
     1.0000   1.0000   1.0000   1.0000   1.0000   1.0000   1.0000   1.0000
     1.0000   1.0000   1.0000   1.0000   1.0000   1.0000   1.0000   1.0000

          k =-0.4993 0.7500-0.1385 (  7196 PWs)   bands (ev):

   -10.4751 -10.1216  -9.8891  -9.6832  -9.1288  -8.9353   1.4723   1.7594
     2.3768   2.5246   3.2203   3.3638   3.8266   4.0315   4.9224   5.1355
     5.4782   5.6181   6.0583   6.1312   6.3832   6.5265   6.5573   6.8870

     occupation numbers 
     1.0000   1.0000   1.0000   1.0000   1.0000   1.0000   1.0000   1.0000
     1.0000   1.0000   1.0000   1.0000   1.0000   1.0000   1.0000   1.0000
     1.0000   1.0000   1.0000   1.0000   1.0000   1.0000   1.0000   1.0000

          k =-0.4992 0.7501-0.0299 (  7195 PWs)   bands (ev):

   -10.5606 -10.0238  -9.8790  -9.5920  -9.2527  -8.9217   1.4538   1.6562
     2.3628   2.5778   3.1383   3.3398   3.7795   4.1004   4.8739   5.1521
     5.6580   5.8253   5.9519   6.0755   6.3259   6.5450   6.6213   6.9853

     occupation numbers 
     1.0000   1.0000   1.0000   1.0000   1.0000   1.0000   1.0000   1.0000
     1.0000   1.0000   1.0000   1.0000   1.0000   1.0000   1.0000   1.0000
     1.0000   1.0000   1.0000   1.0000   1.0000   1.0000   1.0000   1.0000

          k =-0.4990 0.8513 0.0394 (  7181 PWs)   bands (ev):

   -10.6398  -9.9182  -9.8386  -9.5666  -9.3586  -8.9081   1.3278   1.6624
     2.5351   2.7340   3.2124   3.3071   3.7673   4.1760   4.7571   5.0428
     5.6207   5.7808   6.0020   6.0314   6.2191   6.4943   6.5928   7.0014

     occupation numbers 
     1.0000   1.0000   1.0000   1.0000   1.0000   1.0000   1.0000   1.0000
     1.0000   1.0000   1.0000   1.0000   1.0000   1.0000   1.0000   1.0000
     1.0000   1.0000   1.0000   1.0000   1.0000   1.0000   1.0000   1.0000

          k =-0.4989 0.8514 0.1479 (  7190 PWs)   bands (ev):

   -10.7554  -9.8996  -9.7816  -9.5842  -9.2701  -8.9045   1.3590   1.6546
     2.2882   2.7944   3.1652   3.4508   3.9493   4.1324   4.6646   5.0485
     5.5256   5.7850   5.9182   6.0287   6.1875   6.5695   6.6755   6.9090

     occupation numbers 
     1.0000   1.0000   1.0000   1.0000   1.0000   1.0000   1.0000   1.0000
     1.0000   1.0000   1.0000   1.0000   1.0000   1.0000   1.0000   1.0000
     1.0000   1.0000   1.0000   1.0000   1.0000   1.0000   1.0000   1.0000

          k =-0.4988 0.8514 0.2565 (  7197 PWs)   bands (ev):

   -10.8619 -10.0592  -9.6153  -9.5431  -9.1568  -8.9079   1.4202   1.7209
     2.0777   2.8492   3.1190   3.5873   3.8880   4.1335   4.5995   5.1059
     5.4119   5.5461   5.8823   6.0382   6.3030   6.6111   6.7516   6.7994

     occupation numbers 
     1.0000   1.0000   1.0000   1.0000   1.0000   1.0000   1.0000   1.0000
     1.0000   1.0000   1.0000   1.0000   1.0000   1.0000   1.0000   1.0000
     1.0000   1.0000   1.0000   1.0000   1.0000   1.0000   1.0000   1.0000

          k =-0.4987 0.8515 0.3651 (  7205 PWs)   bands (ev):

   -10.9312 -10.2434  -9.4826  -9.4223  -9.0836  -8.9279   1.5195   1.7955
     2.0407   2.8751   3.0899   3.5285   3.6504   4.2381   4.5547   5.0483
     5.2648   5.4026   5.7736   6.2167   6.3375   6.6668   6.7141   6.8739

     occupation numbers 
     1.0000   1.0000   1.0000   1.0000   1.0000   1.0000   1.0000   1.0000
     1.0000   1.0000   1.0000   1.0000   1.0000   1.0000   1.0000   1.0000
     1.0000   1.0000   1.0000   1.0000   1.0000   1.0000   1.0000   1.0000

          k =-0.4987 0.8515 0.4737 (  7208 PWs)   bands (ev):

   -10.9511 -10.4128  -9.3730  -9.2831  -9.0596  -8.9707   1.6343   1.8063
     2.2665   2.8248   3.0800   3.2670   3.5034   4.2157   4.5243   4.9563
     5.2071   5.4111   5.6425   6.0205   6.5847   6.7334   6.8133   6.9202

     occupation numbers 
     1.0000   1.0000   1.0000   1.0000   1.0000   1.0000   1.0000   1.0000
     1.0000   1.0000   1.0000   1.0000   1.0000   1.0000   1.0000   1.0000
     1.0000   1.0000   1.0000   1.0000   1.0000   1.0000   1.0000   1.0000

          k =-0.4986 0.8515 0.5823 (  7192 PWs)   bands (ev):

   -10.9170 -10.5494  -9.2711  -9.1971  -9.0731  -9.0241   1.7066   1.8461
     2.6001   2.7512   3.0409   3.1303   3.3745   3.8320   4.8485   4.9275
     5.1831   5.4211   5.4988   5.7751   6.7725   6.7908   6.8868   6.9297

     occupation numbers 
     1.0000   1.0000   1.0000   1.0000   1.0000   1.0000   1.0000   1.0000
     1.0000   1.0000   1.0000   1.0000   1.0000   1.0000   1.0000   1.0000
     1.0000   1.0000   1.0000   1.0000   1.0000   1.0000   1.0000   1.0000

          k =-0.4995 0.8511-0.6121 (  7195 PWs)   bands (ev):

   -10.8289 -10.6436  -9.2428  -9.2266  -9.0680  -9.0302   1.7193   1.8460
     2.6253   2.9832   3.0660   3.1375   3.2190   3.6859   4.8637   5.1085
     5.1412   5.3152   5.4868   5.7222   6.7767   6.8457   6.8541   6.8918

     occupation numbers 
     1.0000   1.0000   1.0000   1.0000   1.0000   1.0000   1.0000   1.0000
     1.0000   1.0000   1.0000   1.0000   1.0000   1.0000   1.0000   1.0000
     1.0000   1.0000   1.0000   1.0000   1.0000   1.0000   1.0000   1.0000

          k =-0.4994 0.8511-0.5035 (  7194 PWs)   bands (ev):

   -10.6907 -10.6907  -9.3348  -9.3348  -9.0108  -9.0108   1.7326   1.7326
     2.6576   2.6576   3.2329   3.2329   3.6730   3.6731   4.8168   4.8169
     5.2519   5.2519   5.7993   5.7993   6.6755   6.6755   6.8285   6.8285

     occupation numbers 
     1.0000   1.0000   1.0000   1.0000   1.0000   1.0000   1.0000   1.0000
     1.0000   1.0000   1.0000   1.0000   1.0000   1.0000   1.0000   1.0000
     1.0000   1.0000   1.0000   1.0000   1.0000   1.0000   1.0000   1.0000

          k =-0.4993 0.8511-0.3950 (  7201 PWs)   bands (ev):

   -10.6910 -10.5103  -9.4976  -9.4431  -9.0203  -8.9589   1.5773   1.8024
     2.3532   2.6877   3.3351   3.4601   3.7254   4.1192   4.5028   4.8101
     5.2259   5.3857   5.9048   6.1416   6.4148   6.5361   6.7328   6.7729

     occupation numbers 
     1.0000   1.0000   1.0000   1.0000   1.0000   1.0000   1.0000   1.0000
     1.0000   1.0000   1.0000   1.0000   1.0000   1.0000   1.0000   1.0000
     1.0000   1.0000   1.0000   1.0000   1.0000   1.0000   1.0000   1.0000

          k =-0.4993 0.8512-0.2864 (  7190 PWs)   bands (ev):

   -10.6521 -10.3010  -9.6844  -9.5369  -9.0696  -8.9302   1.4473   1.8855
     2.2098   2.6900   3.3386   3.5983   3.8128   4.2103   4.4630   4.9187
     5.3120   5.4883   5.9807   6.1863   6.3473   6.4726   6.6823   6.6972

     occupation numbers 
     1.0000   1.0000   1.0000   1.0000   1.0000   1.0000   1.0000   1.0000
     1.0000   1.0000   1.0000   1.0000   1.0000   1.0000   1.0000   1.0000
     1.0000   1.0000   1.0000   1.0000   1.0000   1.0000   1.0000   1.0000

          k =-0.4992 0.8512-0.1778 (  7188 PWs)   bands (ev):

   -10.5955 -10.0847  -9.8584  -9.5987  -9.1616  -8.9181   1.3634   1.8242
     2.3593   2.6895   3.2998   3.4689   3.8638   4.0782   4.6673   5.0208
     5.4907   5.5962   5.9446   6.1861   6.2656   6.4677   6.5910   6.8520

     occupation numbers 
     1.0000   1.0000   1.0000   1.0000   1.0000   1.0000   1.0000   1.0000
     1.0000   1.0000   1.0000   1.0000   1.0000   1.0000   1.0000   1.0000
     1.0000   1.0000   1.0000   1.0000   1.0000   1.0000   1.0000   1.0000

          k =-0.4991 0.8513-0.0692 (  7190 PWs)   bands (ev):

   -10.5737  -9.9566  -9.9064  -9.6049  -9.2835  -8.9127   1.3261   1.7282
     2.5863   2.6887   3.2460   3.2994   3.7536   4.1243   4.7781   5.0533
     5.5669   5.7905   5.9652   6.0338   6.3576   6.3805   6.5733   6.9842

     occupation numbers 
     1.0000   1.0000   1.0000   1.0000   1.0000   1.0000   1.0000   1.0000
     1.0000   1.0000   1.0000   1.0000   1.0000   1.0000   1.0000   1.0000
     1.0000   1.0000   1.0000   1.0000   1.0000   1.0000   1.0000   1.0000

          k =-0.4999-0.2619 0.4723 (  7164 PWs)   bands (ev):

   -10.6073  -9.9794  -9.7697  -9.6048  -9.3682  -8.9107   1.2737   1.7038
     2.7035   2.7558   3.2011   3.4112   3.6181   4.1299   4.8017   5.0202
     5.5752   5.7839   5.9725   6.0159   6.2761   6.3814   6.5774   7.0164

     occupation numbers 
     1.0000   1.0000   1.0000   1.0000   1.0000   1.0000   1.0000   1.0000
     1.0000   1.0000   1.0000   1.0000   1.0000   1.0000   1.0000   1.0000
     1.0000   1.0000   1.0000   1.0000   1.0000   1.0000   1.0000   1.0000

          k =-0.4998-0.2618 0.5808 (  7192 PWs)   bands (ev):

   -10.6519  -9.9093  -9.8734  -9.5867  -9.2934  -8.9104   1.2914   1.7311
     2.5475   2.7460   3.1955   3.5770   3.6917   4.0794   4.7245   5.0224
     5.5955   5.7252   5.8830   6.1194   6.1559   6.4985   6.5791   6.9569

     occupation numbers 
     1.0000   1.0000   1.0000   1.0000   1.0000   1.0000   1.0000   1.0000
     1.0000   1.0000   1.0000   1.0000   1.0000   1.0000   1.0000   1.0000
     1.0000   1.0000   1.0000   1.0000   1.0000   1.0000   1.0000   1.0000

          k =-0.4998-0.2618 0.6894 (  7202 PWs)   bands (ev):

   -10.7387 -10.0739  -9.7491  -9.5338  -9.1769  -8.9125   1.3471   1.8228
     2.2639   2.7831   3.1929   3.7509   3.8763   3.9305   4.5864   5.0017
     5.5340   5.6498   5.7616   6.0617   6.2873   6.5743   6.6442   6.8104

     occupation numbers 
     1.0000   1.0000   1.0000   1.0000   1.0000   1.0000   1.0000   1.0000
     1.0000   1.0000   1.0000   1.0000   1.0000   1.0000   1.0000   1.0000
     1.0000   1.0000   1.0000   1.0000   1.0000   1.0000   1.0000   1.0000

          k =-0.4997-0.2617 0.7980 (  7193 PWs)   bands (ev):

   -10.8113 -10.2867  -9.5627  -9.4508  -9.0932  -8.9261   1.4447   1.9977
     2.0357   2.8441   3.2005   3.6483   3.6537   4.1698   4.4758   4.9962
     5.2435   5.5556   5.7200   6.2321   6.3096   6.6022   6.7117   6.7657

     occupation numbers 
     1.0000   1.0000   1.0000   1.0000   1.0000   1.0000   1.0000   1.0000
     1.0000   1.0000   1.0000   1.0000   1.0000   1.0000   1.0000   1.0000
     1.0000   1.0000   1.0000   1.0000   1.0000   1.0000   1.0000   1.0000

          k =-0.4996-0.2617 0.9066 (  7207 PWs)   bands (ev):

   -10.8447 -10.4820  -9.3867  -9.3450  -9.0567  -8.9629   1.5790   1.9002
     2.2673   2.9188   3.2039   3.3370   3.3892   4.1627   4.5060   5.0470
     5.1235   5.4019   5.6264   6.0693   6.5287   6.7157   6.7727   6.8498

     occupation numbers 
     1.0000   1.0000   1.0000   1.0000   1.0000   1.0000   1.0000   1.0000
     1.0000   1.0000   1.0000   1.0000   1.0000   1.0000   1.0000   1.0000
     1.0000   1.0000   1.0000   1.0000   1.0000   1.0000   1.0000   1.0000

          k =-0.4995-0.2616 1.0152 (  7195 PWs)   bands (ev):

   -10.8289 -10.6436  -9.2428  -9.2266  -9.0680  -9.0302   1.7193   1.8460
     2.6253   2.9832   3.0660   3.1375   3.2190   3.6859   4.8637   5.1085
     5.1412   5.3152   5.4868   5.7222   6.7767   6.8457   6.8541   6.8918

     occupation numbers 
     1.0000   1.0000   1.0000   1.0000   1.0000   1.0000   1.0000   1.0000
     1.0000   1.0000   1.0000   1.0000   1.0000   1.0000   1.0000   1.0000
     1.0000   1.0000   1.0000   1.0000   1.0000   1.0000   1.0000   1.0000

          k =-0.5004-0.2621-0.1792 (  7206 PWs)   bands (ev):

   -10.7612 -10.7612  -9.1260  -9.1260  -9.1259  -9.1259   1.8110   1.8110
     2.9778   2.9778   2.9778   2.9778   3.2853   3.2853   5.0795   5.0795
     5.3574   5.3574   5.3574   5.3574   6.8910   6.8910   6.8910   6.8910

     occupation numbers 
     1.0000   1.0000   1.0000   1.0000   1.0000   1.0000   1.0000   1.0000
     1.0000   1.0000   1.0000   1.0000   1.0000   1.0000   1.0000   1.0000
     1.0000   1.0000   1.0000   1.0000   1.0000   1.0000   1.0000   1.0000

     highest occupied level (ev):     7.2708

!    total energy              =    -409.34518604 Ry

     total all-electron energy =     -2846.997648 Ry
     estimated scf accuracy    <          3.9E-09 Ry

     The total energy is the sum of the following terms:
     one-electron contribution =     -37.65785603 Ry
     hartree contribution      =      55.02128025 Ry
     xc contribution           =     -56.50288791 Ry
     ewald contribution        =    -174.09460888 Ry
     one-center paw contrib.   =    -196.11111347 Ry
      -> PAW hartree energy AE =      28.39810692 Ry
      -> PAW hartree energy PS =     -28.36422832 Ry
      -> PAW xc energy AE      =     -17.01709077 Ry
      -> PAW xc energy PS      =       7.39957312 Ry
      -> total E_H with PAW    =      55.05515884 Ry
      -> total E_XC with PAW   =     -66.12040556 Ry

     convergence has been achieved in  46 iterations

     Writing all to output data dir ./tmp/Al2O3-Bands.save/

     init_run     :     14.94s CPU     15.62s WALL (       1 calls)
     electrons    :   2818.51s CPU   2964.40s WALL (       1 calls)

     Called by init_run:
     wfcinit      :     13.88s CPU     14.47s WALL (       1 calls)
     wfcinit:atom :      0.14s CPU      0.15s WALL (     868 calls)
     wfcinit:wfcr :     12.71s CPU     13.27s WALL (     868 calls)
     potinit      :      0.34s CPU      0.36s WALL (       1 calls)
     hinit0       :      0.57s CPU      0.60s WALL (       1 calls)

     Called by electrons:
     c_bands      :   2667.39s CPU   2807.94s WALL (      46 calls)
     sum_band     :    144.10s CPU    149.03s WALL (      46 calls)
     v_of_rho     :      0.59s CPU      0.61s WALL (      47 calls)
     v_h          :      0.03s CPU      0.03s WALL (      47 calls)
     v_xc         :      0.56s CPU      0.58s WALL (      47 calls)
     newd         :      2.11s CPU      2.14s WALL (      47 calls)
     PAW_pot      :      4.25s CPU      4.57s WALL (      47 calls)
     mix_rho      :      0.12s CPU      0.14s WALL (      46 calls)

     Called by c_bands:
     init_us_2    :     22.97s CPU     24.22s WALL (   80724 calls)
     init_us_2:cp :     22.79s CPU     24.07s WALL (   80724 calls)
     cegterg      :   2605.60s CPU   2743.09s WALL (   41044 calls)

     Called by sum_band:
     sum_band:wei :      0.01s CPU      0.01s WALL (      46 calls)
     sum_band:loo :    141.73s CPU    146.29s WALL (      46 calls)
     sum_band:buf :      1.60s CPU      1.68s WALL (   39928 calls)
     sum_band:ini :     11.27s CPU     11.73s WALL (   39928 calls)
     sum_band:cal :     15.28s CPU     15.75s WALL (   39928 calls)
     sum_band:bec :      1.49s CPU      1.54s WALL (   39928 calls)
     addusdens    :      2.21s CPU      2.57s WALL (      46 calls)
     addusd:skk   :      0.02s CPU      0.04s WALL (      92 calls)
     addusd:dgemm :      0.46s CPU      0.75s WALL (      92 calls)
     addusd:qvan2 :      1.57s CPU      1.59s WALL (      92 calls)

     Called by *egterg:
     cdiaghg      :    865.95s CPU    931.10s WALL (  285803 calls)
     cegterg:over :    182.42s CPU    198.57s WALL (  244759 calls)
     cegterg:upda :     89.18s CPU     93.37s WALL (  244759 calls)
     cegterg:last :    164.49s CPU    171.38s WALL (  206326 calls)
     cdiaghg:chol :     51.33s CPU     54.63s WALL (  285803 calls)
     cdiaghg:inve :     13.03s CPU     13.64s WALL (  285803 calls)
     cdiaghg:para :     68.99s CPU     71.37s WALL (  571606 calls)
     h_psi        :   1218.16s CPU   1260.53s WALL (  286671 calls)
     s_psi        :     48.31s CPU     49.96s WALL (  286671 calls)
     g_psi        :      8.18s CPU      8.57s WALL (  244759 calls)

     Called by h_psi:
     h_psi:calbec :     94.23s CPU     97.78s WALL (  286671 calls)
     vloc_psi     :   1060.32s CPU   1096.90s WALL (  286671 calls)
     add_vuspsi   :     57.60s CPU     59.74s WALL (  286671 calls)

     General routines
     calbec       :    108.58s CPU    112.77s WALL (  326599 calls)
     fft          :      0.33s CPU      0.36s WALL (     609 calls)
     ffts         :      0.02s CPU      0.02s WALL (      93 calls)
     fftw         :   1024.31s CPU   1059.20s WALL (10791760 calls)
     interpolate  :      0.03s CPU      0.04s WALL (      47 calls)

     Parallel routines

     PAW routines
     PAW_pot      :      4.25s CPU      4.57s WALL (      47 calls)
     PAW_symme    :      0.02s CPU      0.02s WALL (      93 calls)

     PWSCF        :  47m19.09s CPU  50m 7.11s WALL


   This run was terminated on:  13:14: 5   4Jun2026            

=------------------------------------------------------------------------------=
   JOB DONE.
=------------------------------------------------------------------------------=
