
     Program MATDYN v.7.0 starts on 29Jun2026 at 15:13:13 

     This program is part of the open-source Quantum ESPRESSO suite
     for quantum simulation of materials; please cite
         "P. Giannozzi et al., J. Phys.:Condens. Matter 21 395502 (2009);
         "P. Giannozzi et al., J. Phys.:Condens. Matter 29 465901 (2017);
         "P. Giannozzi et al., J. Chem. Phys. 152 154105 (2020);
          URL http://www.quantum-espresso.org", 
     in publications or presentations arising from this work. More details at
     http://www.quantum-espresso.org/quote

     Parallel version (MPI), running on     1 processors

     MPI processes distributed on     1 nodes
     157745 MiB available memory on the printing compute node when the environment starts

 mass for atomic type   1 not given; uses mass from file Al2O3.fc                                                                                                                                                                                                                                                        
 mass for atomic type   2 not given; uses mass from file Al2O3.fc                                                                                                                                                                                                                                                        
Norm of the difference between old and new effective charges:    0.00000008944271906084
Norm of the difference between old and new force-constants:   0.00472502606462721873
     Max |d(i,j)-d*(j,i)| =  0.017658
     Max |d(i,j)-d*(j,i)|/|d(i,j)|: 390.8673%
     Max |d(i,j)-d*(j,i)| =  0.017658
     Max |d(i,j)-d*(j,i)|/|d(i,j)|: 391.7189%
     Max |d(i,j)-d*(j,i)| =  0.017658
     Max |d(i,j)-d*(j,i)|/|d(i,j)|: 394.2894%
     Max |d(i,j)-d*(j,i)| =  0.017658
     Max |d(i,j)-d*(j,i)|/|d(i,j)|: 398.6292%
     Max |d(i,j)-d*(j,i)| =  0.017658
     Max |d(i,j)-d*(j,i)|/|d(i,j)|: 404.8167%
     Max |d(i,j)-d*(j,i)| =  0.017658
     Max |d(i,j)-d*(j,i)|/|d(i,j)|: 412.9701%
     Max |d(i,j)-d*(j,i)| =  0.017658
     Max |d(i,j)-d*(j,i)|/|d(i,j)|: 423.2525%
     Max |d(i,j)-d*(j,i)| =  0.017658
     Max |d(i,j)-d*(j,i)|/|d(i,j)|: 435.8741%
     Max |d(i,j)-d*(j,i)| =  0.017658
     Max |d(i,j)-d*(j,i)|/|d(i,j)|: 451.1032%
     Max |d(i,j)-d*(j,i)| =  0.017658
     Max |d(i,j)-d*(j,i)|/|d(i,j)|: 469.2719%
     Max |d(i,j)-d*(j,i)| =  0.017658
     Max |d(i,j)-d*(j,i)|/|d(i,j)|: 490.8253%
     Max |d(i,j)-d*(j,i)| =  0.017658
     Max |d(i,j)-d*(j,i)|/|d(i,j)|: 516.2762%
     Max |d(i,j)-d*(j,i)| =  0.017658
     Max |d(i,j)-d*(j,i)|/|d(i,j)|: 546.3114%
     Max |d(i,j)-d*(j,i)| =  0.017658
     Max |d(i,j)-d*(j,i)|/|d(i,j)|: 581.7704%
     Max |d(i,j)-d*(j,i)| =  0.017658
     Max |d(i,j)-d*(j,i)|/|d(i,j)|: 623.7273%
     Max |d(i,j)-d*(j,i)| =  0.017658
     Max |d(i,j)-d*(j,i)|/|d(i,j)|: 673.5694%
     Max |d(i,j)-d*(j,i)| =  0.017658
     Max |d(i,j)-d*(j,i)|/|d(i,j)|: 733.0414%
     Max |d(i,j)-d*(j,i)| =  0.017658
     Max |d(i,j)-d*(j,i)|/|d(i,j)|: 804.4847%
     Max |d(i,j)-d*(j,i)| =  0.017658
     Max |d(i,j)-d*(j,i)|/|d(i,j)|: 890.8861%
     Max |d(i,j)-d*(j,i)| =  0.017658
     Max |d(i,j)-d*(j,i)|/|d(i,j)|: 996.1995%
     Max |d(i,j)-d*(j,i)| =  0.017658
     Max |d(i,j)-d*(j,i)|/|d(i,j)|: ********%
     Max |d(i,j)-d*(j,i)| =  0.017658
     Max |d(i,j)-d*(j,i)|/|d(i,j)|: ********%
     Max |d(i,j)-d*(j,i)| =  0.017658
     Max |d(i,j)-d*(j,i)|/|d(i,j)|: ********%
     Max |d(i,j)-d*(j,i)| =  0.017658
     Max |d(i,j)-d*(j,i)|/|d(i,j)|: ********%
     Max |d(i,j)-d*(j,i)| =  0.017658
     Max |d(i,j)-d*(j,i)|/|d(i,j)|: ********%
     Max |d(i,j)-d*(j,i)| =  0.017658
     Max |d(i,j)-d*(j,i)|/|d(i,j)|: ********%
     Max |d(i,j)-d*(j,i)| =  0.017658
     Max |d(i,j)-d*(j,i)|/|d(i,j)|: ********%
     Max |d(i,j)-d*(j,i)| =  0.017658
     Max |d(i,j)-d*(j,i)|/|d(i,j)|: ********%
     Max |d(i,j)-d*(j,i)| =  0.017658
     Max |d(i,j)-d*(j,i)|/|d(i,j)|: ********%
     Max |d(i,j)-d*(j,i)| =  0.017658
     Max |d(i,j)-d*(j,i)|/|d(i,j)|: ********%
     Max |d(i,j)-d*(j,i)| =  0.017658
     Max |d(i,j)-d*(j,i)|/|d(i,j)|: ********%

     MATDYN       :      0.29s CPU      0.32s WALL


   This run was terminated on:  15:13:13  29Jun2026            

=------------------------------------------------------------------------------=
   JOB DONE.
=------------------------------------------------------------------------------=
