
     Program MATDYN v.7.0 starts on 29Jun2026 at 14:31:14 

     This program is part of the open-source Quantum ESPRESSO suite
     for quantum simulation of materials; please cite
         "P. Giannozzi et al., J. Phys.:Condens. Matter 21 395502 (2009);
         "P. Giannozzi et al., J. Phys.:Condens. Matter 29 465901 (2017);
         "P. Giannozzi et al., J. Chem. Phys. 152 154105 (2020);
          URL http://www.quantum-espresso.org", 
     in publications or presentations arising from this work. More details at
     http://www.quantum-espresso.org/quote

     Parallel version (MPI), running on     1 processors

     MPI processes distributed on     1 nodes
     149647 MiB available memory on the printing compute node when the environment starts

 mass for atomic type   1 not given; uses mass from file Al2O3.fc                                                                                                                                                                                                                                                        
 mass for atomic type   2 not given; uses mass from file Al2O3.fc                                                                                                                                                                                                                                                        
Norm of the difference between old and new effective charges:    0.00000008944271906084
Norm of the difference between old and new force-constants:   0.00472502606462721873
     Max |d(i,j)-d*(j,i)| =  0.017658
     Max |d(i,j)-d*(j,i)|/|d(i,j)|: 583.4220%
     Max |d(i,j)-d*(j,i)| =  0.017658
     Max |d(i,j)-d*(j,i)|/|d(i,j)|: 650.5946%
     Max |d(i,j)-d*(j,i)| =  0.017658
     Max |d(i,j)-d*(j,i)|/|d(i,j)|: 967.9501%
     Max |d(i,j)-d*(j,i)| =  0.017658
     Max |d(i,j)-d*(j,i)|/|d(i,j)|: ********%
     Max |d(i,j)-d*(j,i)| =  0.017658
     Max |d(i,j)-d*(j,i)|/|d(i,j)|: ********%
     Max |d(i,j)-d*(j,i)| =  0.017658
     Max |d(i,j)-d*(j,i)|/|d(i,j)|: 667.2972%
     Max |d(i,j)-d*(j,i)| =  0.017658
     Max |d(i,j)-d*(j,i)|/|d(i,j)|: 444.1214%
     Max |d(i,j)-d*(j,i)| =  0.017658
     Max |d(i,j)-d*(j,i)|/|d(i,j)|: 363.0273%
     Max |d(i,j)-d*(j,i)| =  0.017658
     Max |d(i,j)-d*(j,i)|/|d(i,j)|: 341.1587%
     Max |d(i,j)-d*(j,i)| =  0.017658
     Max |d(i,j)-d*(j,i)|/|d(i,j)|:  52.1280%
     Max |d(i,j)-d*(j,i)| =  0.017658
     Max |d(i,j)-d*(j,i)|/|d(i,j)|:  45.2237%
     Max |d(i,j)-d*(j,i)| =  0.017658
     Max |d(i,j)-d*(j,i)|/|d(i,j)|:  55.5082%
     Max |d(i,j)-d*(j,i)| =  0.017658
     Max |d(i,j)-d*(j,i)|/|d(i,j)|: 113.4041%
     Max |d(i,j)-d*(j,i)| =  0.017658
     Max |d(i,j)-d*(j,i)|/|d(i,j)|: 438.3033%
     Max |d(i,j)-d*(j,i)| =  0.017658
     Max |d(i,j)-d*(j,i)|/|d(i,j)|: 388.3719%
     Max |d(i,j)-d*(j,i)| =  0.017658
     Max |d(i,j)-d*(j,i)|/|d(i,j)|: 278.1350%
     Max |d(i,j)-d*(j,i)| =  0.017658
     Max |d(i,j)-d*(j,i)|/|d(i,j)|: ********%
     Max |d(i,j)-d*(j,i)| =  0.017658
     Max |d(i,j)-d*(j,i)|/|d(i,j)|: 478.8239%
     Max |d(i,j)-d*(j,i)| =  0.017658
     Max |d(i,j)-d*(j,i)|/|d(i,j)|: 234.7267%
     Max |d(i,j)-d*(j,i)| =  0.017658
     Max |d(i,j)-d*(j,i)|/|d(i,j)|: 160.9715%
     Max |d(i,j)-d*(j,i)| =  0.017658
     Max |d(i,j)-d*(j,i)|/|d(i,j)|: 121.9595%
     Max |d(i,j)-d*(j,i)| =  0.017658
     Max |d(i,j)-d*(j,i)|/|d(i,j)|:  94.2963%
     Max |d(i,j)-d*(j,i)| =  0.017658
     Max |d(i,j)-d*(j,i)|/|d(i,j)|:  71.2420%
     Max |d(i,j)-d*(j,i)| =  0.017658
     Max |d(i,j)-d*(j,i)|/|d(i,j)|:  51.3095%
     Max |d(i,j)-d*(j,i)| =  0.017658
     Max |d(i,j)-d*(j,i)|/|d(i,j)|:  36.1950%
     Max |d(i,j)-d*(j,i)| =  0.017658
     Max |d(i,j)-d*(j,i)|/|d(i,j)|:  52.5509%
     Max |d(i,j)-d*(j,i)| =  0.017658
     Max |d(i,j)-d*(j,i)|/|d(i,j)|: ********%
     Max |d(i,j)-d*(j,i)| =  0.017658
     Max |d(i,j)-d*(j,i)|/|d(i,j)|:  50.5771%
     Max |d(i,j)-d*(j,i)| =  0.017658
     Max |d(i,j)-d*(j,i)|/|d(i,j)|:  52.8760%
     Max |d(i,j)-d*(j,i)| =  0.017658
     Max |d(i,j)-d*(j,i)|/|d(i,j)|:  80.1501%
     Max |d(i,j)-d*(j,i)| =  0.017658
     Max |d(i,j)-d*(j,i)|/|d(i,j)|: 172.4041%
     Max |d(i,j)-d*(j,i)| =  0.017658
     Max |d(i,j)-d*(j,i)|/|d(i,j)|: ********%
     Max |d(i,j)-d*(j,i)| =  0.017658
     Max |d(i,j)-d*(j,i)|/|d(i,j)|: 212.6505%
     Max |d(i,j)-d*(j,i)| =  0.017658
     Max |d(i,j)-d*(j,i)|/|d(i,j)|: ********%
     Max |d(i,j)-d*(j,i)| =  0.017658
     Max |d(i,j)-d*(j,i)|/|d(i,j)|: 254.1416%
     Max |d(i,j)-d*(j,i)| =  0.017658
     Max |d(i,j)-d*(j,i)|/|d(i,j)|: 128.2697%
     Max |d(i,j)-d*(j,i)| =  0.017658
     Max |d(i,j)-d*(j,i)|/|d(i,j)|:  85.6715%
     Max |d(i,j)-d*(j,i)| =  0.017658
     Max |d(i,j)-d*(j,i)|/|d(i,j)|:  63.0771%
     Max |d(i,j)-d*(j,i)| =  0.017658
     Max |d(i,j)-d*(j,i)|/|d(i,j)|:  48.5626%
     Max |d(i,j)-d*(j,i)| =  0.017658
     Max |d(i,j)-d*(j,i)|/|d(i,j)|:  38.9283%
     Max |d(i,j)-d*(j,i)| =  0.017658
     Max |d(i,j)-d*(j,i)|/|d(i,j)|:  34.9629%
     Max |d(i,j)-d*(j,i)| =  0.017658
     Max |d(i,j)-d*(j,i)|/|d(i,j)|:  53.1909%
     Max |d(i,j)-d*(j,i)| =  0.017658
     Max |d(i,j)-d*(j,i)|/|d(i,j)|: ********%
     Max |d(i,j)-d*(j,i)| =  0.017658
     Max |d(i,j)-d*(j,i)|/|d(i,j)|: 126.1335%
     Max |d(i,j)-d*(j,i)| =  0.017658
     Max |d(i,j)-d*(j,i)|/|d(i,j)|:  61.6152%
     Max |d(i,j)-d*(j,i)| =  0.017658
     Max |d(i,j)-d*(j,i)|/|d(i,j)|:  64.9198%
     Max |d(i,j)-d*(j,i)| =  0.017658
     Max |d(i,j)-d*(j,i)|/|d(i,j)|:  94.3809%
     Max |d(i,j)-d*(j,i)| =  0.017658
     Max |d(i,j)-d*(j,i)|/|d(i,j)|: 213.4463%
     Max |d(i,j)-d*(j,i)| =  0.017658
     Max |d(i,j)-d*(j,i)|/|d(i,j)|: 803.8263%
     Max |d(i,j)-d*(j,i)| =  0.017658
     Max |d(i,j)-d*(j,i)|/|d(i,j)|: 320.5365%
     Max |d(i,j)-d*(j,i)| =  0.017658
     Max |d(i,j)-d*(j,i)|/|d(i,j)|: 453.8146%
     Max |d(i,j)-d*(j,i)| =  0.017658
     Max |d(i,j)-d*(j,i)|/|d(i,j)|: 136.9399%
     Max |d(i,j)-d*(j,i)| =  0.017658
     Max |d(i,j)-d*(j,i)|/|d(i,j)|:  81.3525%
     Max |d(i,j)-d*(j,i)| =  0.017658
     Max |d(i,j)-d*(j,i)|/|d(i,j)|:  58.0103%
     Max |d(i,j)-d*(j,i)| =  0.017658
     Max |d(i,j)-d*(j,i)|/|d(i,j)|:  45.4655%
     Max |d(i,j)-d*(j,i)| =  0.017658
     Max |d(i,j)-d*(j,i)|/|d(i,j)|:  38.7813%
     Max |d(i,j)-d*(j,i)| =  0.017658
     Max |d(i,j)-d*(j,i)|/|d(i,j)|:  38.0565%
     Max |d(i,j)-d*(j,i)| =  0.017658
     Max |d(i,j)-d*(j,i)|/|d(i,j)|:  53.9572%
     Max |d(i,j)-d*(j,i)| =  0.017658
     Max |d(i,j)-d*(j,i)|/|d(i,j)|: 144.6431%
     Max |d(i,j)-d*(j,i)| =  0.017658
     Max |d(i,j)-d*(j,i)|/|d(i,j)|: 383.4992%
     Max |d(i,j)-d*(j,i)| =  0.017658
     Max |d(i,j)-d*(j,i)|/|d(i,j)|: 125.1802%
     Max |d(i,j)-d*(j,i)| =  0.017658
     Max |d(i,j)-d*(j,i)|/|d(i,j)|:  83.3999%
     Max |d(i,j)-d*(j,i)| =  0.017658
     Max |d(i,j)-d*(j,i)|/|d(i,j)|:  92.4327%
     Max |d(i,j)-d*(j,i)| =  0.017658
     Max |d(i,j)-d*(j,i)|/|d(i,j)|: 146.3959%
     Max |d(i,j)-d*(j,i)| =  0.017658
     Max |d(i,j)-d*(j,i)|/|d(i,j)|: 616.7157%
     Max |d(i,j)-d*(j,i)| =  0.017658
     Max |d(i,j)-d*(j,i)|/|d(i,j)|: 249.5915%
     Max |d(i,j)-d*(j,i)| =  0.017658
     Max |d(i,j)-d*(j,i)|/|d(i,j)|: ********%
     Max |d(i,j)-d*(j,i)| =  0.017658
     Max |d(i,j)-d*(j,i)|/|d(i,j)|: 186.1774%
     Max |d(i,j)-d*(j,i)| =  0.017658
     Max |d(i,j)-d*(j,i)|/|d(i,j)|:  91.7253%
     Max |d(i,j)-d*(j,i)| =  0.017658
     Max |d(i,j)-d*(j,i)|/|d(i,j)|:  61.8912%
     Max |d(i,j)-d*(j,i)| =  0.017658
     Max |d(i,j)-d*(j,i)|/|d(i,j)|:  48.1625%
     Max |d(i,j)-d*(j,i)| =  0.017658
     Max |d(i,j)-d*(j,i)|/|d(i,j)|:  41.8837%
     Max |d(i,j)-d*(j,i)| =  0.017658
     Max |d(i,j)-d*(j,i)|/|d(i,j)|:  41.8779%
     Max |d(i,j)-d*(j,i)| =  0.017658
     Max |d(i,j)-d*(j,i)|/|d(i,j)|:  54.7359%
     Max |d(i,j)-d*(j,i)| =  0.017658
     Max |d(i,j)-d*(j,i)|/|d(i,j)|:  95.0792%
     Max |d(i,j)-d*(j,i)| =  0.017658
     Max |d(i,j)-d*(j,i)|/|d(i,j)|: ********%
     Max |d(i,j)-d*(j,i)| =  0.017658
     Max |d(i,j)-d*(j,i)|/|d(i,j)|: ********%
     Max |d(i,j)-d*(j,i)| =  0.017658
     Max |d(i,j)-d*(j,i)|/|d(i,j)|: 173.8725%
     Max |d(i,j)-d*(j,i)| =  0.017658
     Max |d(i,j)-d*(j,i)|/|d(i,j)|: 130.1422%
     Max |d(i,j)-d*(j,i)| =  0.017658
     Max |d(i,j)-d*(j,i)|/|d(i,j)|: 158.3201%
     Max |d(i,j)-d*(j,i)| =  0.017658
     Max |d(i,j)-d*(j,i)|/|d(i,j)|: 349.2947%
     Max |d(i,j)-d*(j,i)| =  0.017658
     Max |d(i,j)-d*(j,i)|/|d(i,j)|: 564.8420%
     Max |d(i,j)-d*(j,i)| =  0.017658
     Max |d(i,j)-d*(j,i)|/|d(i,j)|: 337.8168%
     Max |d(i,j)-d*(j,i)| =  0.017658
     Max |d(i,j)-d*(j,i)|/|d(i,j)|: 381.0431%
     Max |d(i,j)-d*(j,i)| =  0.017658
     Max |d(i,j)-d*(j,i)|/|d(i,j)|: 120.9300%
     Max |d(i,j)-d*(j,i)| =  0.017658
     Max |d(i,j)-d*(j,i)|/|d(i,j)|:  73.2398%
     Max |d(i,j)-d*(j,i)| =  0.017658
     Max |d(i,j)-d*(j,i)|/|d(i,j)|:  54.7166%
     Max |d(i,j)-d*(j,i)| =  0.017658
     Max |d(i,j)-d*(j,i)|/|d(i,j)|:  46.8456%
     Max |d(i,j)-d*(j,i)| =  0.017658
     Max |d(i,j)-d*(j,i)|/|d(i,j)|:  45.9859%
     Max |d(i,j)-d*(j,i)| =  0.017658
     Max |d(i,j)-d*(j,i)|/|d(i,j)|:  55.4056%
     Max |d(i,j)-d*(j,i)| =  0.017658
     Max |d(i,j)-d*(j,i)|/|d(i,j)|:  77.0928%
     Max |d(i,j)-d*(j,i)| =  0.017658
     Max |d(i,j)-d*(j,i)|/|d(i,j)|: 183.2502%
     Max |d(i,j)-d*(j,i)| =  0.017658
     Max |d(i,j)-d*(j,i)|/|d(i,j)|: 383.0878%
     Max |d(i,j)-d*(j,i)| =  0.017658
     Max |d(i,j)-d*(j,i)|/|d(i,j)|: ********%
     Max |d(i,j)-d*(j,i)| =  0.017658
     Max |d(i,j)-d*(j,i)|/|d(i,j)|: 334.5462%
     Max |d(i,j)-d*(j,i)| =  0.017658
     Max |d(i,j)-d*(j,i)|/|d(i,j)|: 251.2824%
     Max |d(i,j)-d*(j,i)| =  0.017658
     Max |d(i,j)-d*(j,i)|/|d(i,j)|: 376.4449%
     Max |d(i,j)-d*(j,i)| =  0.017658
     Max |d(i,j)-d*(j,i)|/|d(i,j)|: ********%
     Max |d(i,j)-d*(j,i)| =  0.017658
     Max |d(i,j)-d*(j,i)|/|d(i,j)|: 221.2803%
     Max |d(i,j)-d*(j,i)| =  0.017658
     Max |d(i,j)-d*(j,i)|/|d(i,j)|: ********%
     Max |d(i,j)-d*(j,i)| =  0.017658
     Max |d(i,j)-d*(j,i)|/|d(i,j)|: 204.0771%
     Max |d(i,j)-d*(j,i)| =  0.017658
     Max |d(i,j)-d*(j,i)|/|d(i,j)|:  96.8553%
     Max |d(i,j)-d*(j,i)| =  0.017658
     Max |d(i,j)-d*(j,i)|/|d(i,j)|:  65.9483%
     Max |d(i,j)-d*(j,i)| =  0.017658
     Max |d(i,j)-d*(j,i)|/|d(i,j)|:  53.6518%
     Max |d(i,j)-d*(j,i)| =  0.017658
     Max |d(i,j)-d*(j,i)|/|d(i,j)|:  50.3498%
     Max |d(i,j)-d*(j,i)| =  0.017658
     Max |d(i,j)-d*(j,i)|/|d(i,j)|:  55.8583%
     Max |d(i,j)-d*(j,i)| =  0.017658
     Max |d(i,j)-d*(j,i)|/|d(i,j)|:  67.2452%
     Max |d(i,j)-d*(j,i)| =  0.017658
     Max |d(i,j)-d*(j,i)|/|d(i,j)|: 104.9238%
     Max |d(i,j)-d*(j,i)| =  0.017658
     Max |d(i,j)-d*(j,i)|/|d(i,j)|: 330.5330%
     Max |d(i,j)-d*(j,i)| =  0.017658
     Max |d(i,j)-d*(j,i)|/|d(i,j)|: 311.9693%
     Max |d(i,j)-d*(j,i)| =  0.017658
     Max |d(i,j)-d*(j,i)|/|d(i,j)|: 497.4910%
     Max |d(i,j)-d*(j,i)| =  0.017658
     Max |d(i,j)-d*(j,i)|/|d(i,j)|: ********%
     Max |d(i,j)-d*(j,i)| =  0.017658
     Max |d(i,j)-d*(j,i)|/|d(i,j)|: 677.1193%
     Max |d(i,j)-d*(j,i)| =  0.017658
     Max |d(i,j)-d*(j,i)|/|d(i,j)|: ********%
     Max |d(i,j)-d*(j,i)| =  0.017658
     Max |d(i,j)-d*(j,i)|/|d(i,j)|: 443.5752%
     Max |d(i,j)-d*(j,i)| =  0.017658
     Max |d(i,j)-d*(j,i)|/|d(i,j)|: 260.5597%
     Max |d(i,j)-d*(j,i)| =  0.017658
     Max |d(i,j)-d*(j,i)|/|d(i,j)|: 964.3497%
     Max |d(i,j)-d*(j,i)| =  0.017658
     Max |d(i,j)-d*(j,i)|/|d(i,j)|: 155.7546%
     Max |d(i,j)-d*(j,i)| =  0.017658
     Max |d(i,j)-d*(j,i)|/|d(i,j)|:  85.9237%
     Max |d(i,j)-d*(j,i)| =  0.017658
     Max |d(i,j)-d*(j,i)|/|d(i,j)|:  63.1249%
     Max |d(i,j)-d*(j,i)| =  0.017658
     Max |d(i,j)-d*(j,i)|/|d(i,j)|:  55.0810%
     Max |d(i,j)-d*(j,i)| =  0.017658
     Max |d(i,j)-d*(j,i)|/|d(i,j)|:  56.0182%
     Max |d(i,j)-d*(j,i)| =  0.017658
     Max |d(i,j)-d*(j,i)|/|d(i,j)|:  60.4792%
     Max |d(i,j)-d*(j,i)| =  0.017658
     Max |d(i,j)-d*(j,i)|/|d(i,j)|:  77.6702%
     Max |d(i,j)-d*(j,i)| =  0.017658
     Max |d(i,j)-d*(j,i)|/|d(i,j)|: 130.5001%
     Max |d(i,j)-d*(j,i)| =  0.017658
     Max |d(i,j)-d*(j,i)|/|d(i,j)|: 512.4699%
     Max |d(i,j)-d*(j,i)| =  0.017658
     Max |d(i,j)-d*(j,i)|/|d(i,j)|: 306.5233%
     Max |d(i,j)-d*(j,i)| =  0.017658
     Max |d(i,j)-d*(j,i)|/|d(i,j)|: 367.8956%
     Max |d(i,j)-d*(j,i)| =  0.017658
     Max |d(i,j)-d*(j,i)|/|d(i,j)|: ********%
     Max |d(i,j)-d*(j,i)| =  0.017658
     Max |d(i,j)-d*(j,i)|/|d(i,j)|: ********%
     Max |d(i,j)-d*(j,i)| =  0.017658
     Max |d(i,j)-d*(j,i)|/|d(i,j)|: 196.8937%
     Max |d(i,j)-d*(j,i)| =  0.017658
     Max |d(i,j)-d*(j,i)|/|d(i,j)|:  68.5042%
     Max |d(i,j)-d*(j,i)| =  0.017658
     Max |d(i,j)-d*(j,i)|/|d(i,j)|:  72.8961%
     Max |d(i,j)-d*(j,i)| =  0.017658
     Max |d(i,j)-d*(j,i)|/|d(i,j)|: 101.8412%
     Max |d(i,j)-d*(j,i)| =  0.017658
     Max |d(i,j)-d*(j,i)|/|d(i,j)|: 132.6504%
     Max |d(i,j)-d*(j,i)| =  0.017658
     Max |d(i,j)-d*(j,i)|/|d(i,j)|: 160.9388%
     Max |d(i,j)-d*(j,i)| =  0.017658
     Max |d(i,j)-d*(j,i)|/|d(i,j)|: 189.1703%
     Max |d(i,j)-d*(j,i)| =  0.017658
     Max |d(i,j)-d*(j,i)|/|d(i,j)|: 227.1844%
     Max |d(i,j)-d*(j,i)| =  0.017658
     Max |d(i,j)-d*(j,i)|/|d(i,j)|: 300.0844%
     Max |d(i,j)-d*(j,i)| =  0.017658
     Max |d(i,j)-d*(j,i)|/|d(i,j)|: 515.7994%
     Max |d(i,j)-d*(j,i)| =  0.017658
     Max |d(i,j)-d*(j,i)|/|d(i,j)|: ********%
     Max |d(i,j)-d*(j,i)| =  0.017658
     Max |d(i,j)-d*(j,i)|/|d(i,j)|: 477.2265%
     Max |d(i,j)-d*(j,i)| =  0.017658
     Max |d(i,j)-d*(j,i)|/|d(i,j)|: 206.7838%
     Max |d(i,j)-d*(j,i)| =  0.017658
     Max |d(i,j)-d*(j,i)|/|d(i,j)|: 565.7036%
     Max |d(i,j)-d*(j,i)| =  0.017658
     Max |d(i,j)-d*(j,i)|/|d(i,j)|: 373.3761%
     Max |d(i,j)-d*(j,i)| =  0.017658
     Max |d(i,j)-d*(j,i)|/|d(i,j)|: 117.4299%
     Max |d(i,j)-d*(j,i)| =  0.017658
     Max |d(i,j)-d*(j,i)|/|d(i,j)|:  80.1511%
     Max |d(i,j)-d*(j,i)| =  0.017658
     Max |d(i,j)-d*(j,i)|/|d(i,j)|: 958.9049%
     Max |d(i,j)-d*(j,i)| =  0.017658
     Max |d(i,j)-d*(j,i)|/|d(i,j)|: 188.4202%
     Max |d(i,j)-d*(j,i)| =  0.017658
     Max |d(i,j)-d*(j,i)|/|d(i,j)|: ********%
     Max |d(i,j)-d*(j,i)| =  0.017658
     Max |d(i,j)-d*(j,i)|/|d(i,j)|: 271.9321%
     Max |d(i,j)-d*(j,i)| =  0.017658
     Max |d(i,j)-d*(j,i)|/|d(i,j)|: 292.1316%
     Max |d(i,j)-d*(j,i)| =  0.017658
     Max |d(i,j)-d*(j,i)|/|d(i,j)|: 890.6306%
     Max |d(i,j)-d*(j,i)| =  0.017658
     Max |d(i,j)-d*(j,i)|/|d(i,j)|: ********%
     Max |d(i,j)-d*(j,i)| =  0.017658
     Max |d(i,j)-d*(j,i)|/|d(i,j)|: 484.6023%
     Max |d(i,j)-d*(j,i)| =  0.017658
     Max |d(i,j)-d*(j,i)|/|d(i,j)|: 330.4000%
     Max |d(i,j)-d*(j,i)| =  0.017658
     Max |d(i,j)-d*(j,i)|/|d(i,j)|: 273.2710%
     Max |d(i,j)-d*(j,i)| =  0.017658
     Max |d(i,j)-d*(j,i)|/|d(i,j)|: 244.1185%
     Max |d(i,j)-d*(j,i)| =  0.017658
     Max |d(i,j)-d*(j,i)|/|d(i,j)|: 220.0374%
     Max |d(i,j)-d*(j,i)| =  0.017658
     Max |d(i,j)-d*(j,i)|/|d(i,j)|: 188.2966%
     Max |d(i,j)-d*(j,i)| =  0.017658
     Max |d(i,j)-d*(j,i)|/|d(i,j)|: 145.6142%
     Max |d(i,j)-d*(j,i)| =  0.017658
     Max |d(i,j)-d*(j,i)|/|d(i,j)|: 100.9157%
     Max |d(i,j)-d*(j,i)| =  0.017658
     Max |d(i,j)-d*(j,i)|/|d(i,j)|:  42.6867%
     Max |d(i,j)-d*(j,i)| =  0.017658
     Max |d(i,j)-d*(j,i)|/|d(i,j)|: ********%
     Max |d(i,j)-d*(j,i)| =  0.017658
     Max |d(i,j)-d*(j,i)|/|d(i,j)|:  63.4730%
     Max |d(i,j)-d*(j,i)| =  0.017658
     Max |d(i,j)-d*(j,i)|/|d(i,j)|:  60.3678%
     Max |d(i,j)-d*(j,i)| =  0.017658
     Max |d(i,j)-d*(j,i)|/|d(i,j)|:  97.8823%
     Max |d(i,j)-d*(j,i)| =  0.017658
     Max |d(i,j)-d*(j,i)|/|d(i,j)|: 250.2609%
     Max |d(i,j)-d*(j,i)| =  0.017658
     Max |d(i,j)-d*(j,i)|/|d(i,j)|: 804.5794%
     Max |d(i,j)-d*(j,i)| =  0.017658
     Max |d(i,j)-d*(j,i)|/|d(i,j)|: 227.8037%
     Max |d(i,j)-d*(j,i)| =  0.017658
     Max |d(i,j)-d*(j,i)|/|d(i,j)|: ********%
     Max |d(i,j)-d*(j,i)| =  0.017658
     Max |d(i,j)-d*(j,i)|/|d(i,j)|: 410.9039%
     Max |d(i,j)-d*(j,i)| =  0.017658
     Max |d(i,j)-d*(j,i)|/|d(i,j)|: 190.9334%
     Max |d(i,j)-d*(j,i)| =  0.017658
     Max |d(i,j)-d*(j,i)|/|d(i,j)|: 126.2461%
     Max |d(i,j)-d*(j,i)| =  0.017658
     Max |d(i,j)-d*(j,i)|/|d(i,j)|:  92.8075%
     Max |d(i,j)-d*(j,i)| =  0.017658
     Max |d(i,j)-d*(j,i)|/|d(i,j)|:  70.6093%
     Max |d(i,j)-d*(j,i)| =  0.017658
     Max |d(i,j)-d*(j,i)|/|d(i,j)|:  54.2368%
     Max |d(i,j)-d*(j,i)| =  0.017658
     Max |d(i,j)-d*(j,i)|/|d(i,j)|:  42.9859%
     Max |d(i,j)-d*(j,i)| =  0.017658
     Max |d(i,j)-d*(j,i)|/|d(i,j)|:  42.8178%
     Max |d(i,j)-d*(j,i)| =  0.017658
     Max |d(i,j)-d*(j,i)|/|d(i,j)|: 114.6291%
     Max |d(i,j)-d*(j,i)| =  0.017658
     Max |d(i,j)-d*(j,i)|/|d(i,j)|: 248.2382%
     Max |d(i,j)-d*(j,i)| =  0.017658
     Max |d(i,j)-d*(j,i)|/|d(i,j)|:  61.4343%
     Max |d(i,j)-d*(j,i)| =  0.017658
     Max |d(i,j)-d*(j,i)|/|d(i,j)|:  61.7099%
     Max |d(i,j)-d*(j,i)| =  0.017658
     Max |d(i,j)-d*(j,i)|/|d(i,j)|:  89.0835%
     Max |d(i,j)-d*(j,i)| =  0.017658
     Max |d(i,j)-d*(j,i)|/|d(i,j)|: 190.3068%
     Max |d(i,j)-d*(j,i)| =  0.017658
     Max |d(i,j)-d*(j,i)|/|d(i,j)|: ********%
     Max |d(i,j)-d*(j,i)| =  0.017658
     Max |d(i,j)-d*(j,i)|/|d(i,j)|: 233.8428%
     Max |d(i,j)-d*(j,i)| =  0.017658
     Max |d(i,j)-d*(j,i)|/|d(i,j)|: ********%
     Max |d(i,j)-d*(j,i)| =  0.017658
     Max |d(i,j)-d*(j,i)|/|d(i,j)|: 203.5220%
     Max |d(i,j)-d*(j,i)| =  0.017658
     Max |d(i,j)-d*(j,i)|/|d(i,j)|: 108.9829%
     Max |d(i,j)-d*(j,i)| =  0.017658
     Max |d(i,j)-d*(j,i)|/|d(i,j)|:  74.2553%
     Max |d(i,j)-d*(j,i)| =  0.017658
     Max |d(i,j)-d*(j,i)|/|d(i,j)|:  55.8153%
     Max |d(i,j)-d*(j,i)| =  0.017658
     Max |d(i,j)-d*(j,i)|/|d(i,j)|:  44.7414%
     Max |d(i,j)-d*(j,i)| =  0.017658
     Max |d(i,j)-d*(j,i)|/|d(i,j)|:  39.1551%
     Max |d(i,j)-d*(j,i)| =  0.017658
     Max |d(i,j)-d*(j,i)|/|d(i,j)|:  45.4257%
     Max |d(i,j)-d*(j,i)| =  0.017658
     Max |d(i,j)-d*(j,i)|/|d(i,j)|:  81.8136%
     Max |d(i,j)-d*(j,i)| =  0.017658
     Max |d(i,j)-d*(j,i)|/|d(i,j)|: 273.3135%
     Max |d(i,j)-d*(j,i)| =  0.017658
     Max |d(i,j)-d*(j,i)|/|d(i,j)|: 133.1673%
     Max |d(i,j)-d*(j,i)| =  0.017658
     Max |d(i,j)-d*(j,i)|/|d(i,j)|:  74.4110%
     Max |d(i,j)-d*(j,i)| =  0.017658
     Max |d(i,j)-d*(j,i)|/|d(i,j)|:  78.6986%
     Max |d(i,j)-d*(j,i)| =  0.017658
     Max |d(i,j)-d*(j,i)|/|d(i,j)|: 116.2595%
     Max |d(i,j)-d*(j,i)| =  0.017658
     Max |d(i,j)-d*(j,i)|/|d(i,j)|: 306.6998%
     Max |d(i,j)-d*(j,i)| =  0.017658
     Max |d(i,j)-d*(j,i)|/|d(i,j)|: 427.0190%
     Max |d(i,j)-d*(j,i)| =  0.017658
     Max |d(i,j)-d*(j,i)|/|d(i,j)|: 465.2865%
     Max |d(i,j)-d*(j,i)| =  0.017658
     Max |d(i,j)-d*(j,i)|/|d(i,j)|: 313.7783%
     Max |d(i,j)-d*(j,i)| =  0.017658
     Max |d(i,j)-d*(j,i)|/|d(i,j)|: 119.4524%
     Max |d(i,j)-d*(j,i)| =  0.017658
     Max |d(i,j)-d*(j,i)|/|d(i,j)|:  74.5285%
     Max |d(i,j)-d*(j,i)| =  0.017658
     Max |d(i,j)-d*(j,i)|/|d(i,j)|:  54.9165%
     Max |d(i,j)-d*(j,i)| =  0.017658
     Max |d(i,j)-d*(j,i)|/|d(i,j)|:  44.8824%
     Max |d(i,j)-d*(j,i)| =  0.017658
     Max |d(i,j)-d*(j,i)|/|d(i,j)|:  41.0041%
     Max |d(i,j)-d*(j,i)| =  0.017658
     Max |d(i,j)-d*(j,i)|/|d(i,j)|:  48.4138%
     Max |d(i,j)-d*(j,i)| =  0.017658
     Max |d(i,j)-d*(j,i)|/|d(i,j)|:  71.1015%
     Max |d(i,j)-d*(j,i)| =  0.017658
     Max |d(i,j)-d*(j,i)|/|d(i,j)|: 322.4928%
     Max |d(i,j)-d*(j,i)| =  0.017658
     Max |d(i,j)-d*(j,i)|/|d(i,j)|: 699.2208%
     Max |d(i,j)-d*(j,i)| =  0.017658
     Max |d(i,j)-d*(j,i)|/|d(i,j)|: 150.8796%
     Max |d(i,j)-d*(j,i)| =  0.017658
     Max |d(i,j)-d*(j,i)|/|d(i,j)|: 104.7129%
     Max |d(i,j)-d*(j,i)| =  0.017658
     Max |d(i,j)-d*(j,i)|/|d(i,j)|: 118.9666%
     Max |d(i,j)-d*(j,i)| =  0.017658
     Max |d(i,j)-d*(j,i)|/|d(i,j)|: 206.0832%
     Max |d(i,j)-d*(j,i)| =  0.017658
     Max |d(i,j)-d*(j,i)|/|d(i,j)|: ********%
     Max |d(i,j)-d*(j,i)| =  0.017658
     Max |d(i,j)-d*(j,i)|/|d(i,j)|: 207.9240%
     Max |d(i,j)-d*(j,i)| =  0.017658
     Max |d(i,j)-d*(j,i)|/|d(i,j)|: ********%
     Max |d(i,j)-d*(j,i)| =  0.017658
     Max |d(i,j)-d*(j,i)|/|d(i,j)|: 161.1029%
     Max |d(i,j)-d*(j,i)| =  0.017658
     Max |d(i,j)-d*(j,i)|/|d(i,j)|:  86.3048%
     Max |d(i,j)-d*(j,i)| =  0.017658
     Max |d(i,j)-d*(j,i)|/|d(i,j)|:  60.5199%
     Max |d(i,j)-d*(j,i)| =  0.017658
     Max |d(i,j)-d*(j,i)|/|d(i,j)|:  48.9156%
     Max |d(i,j)-d*(j,i)| =  0.017658
     Max |d(i,j)-d*(j,i)|/|d(i,j)|:  44.7937%
     Max |d(i,j)-d*(j,i)| =  0.017658
     Max |d(i,j)-d*(j,i)|/|d(i,j)|:  51.4247%
     Max |d(i,j)-d*(j,i)| =  0.017658
     Max |d(i,j)-d*(j,i)|/|d(i,j)|:  65.7245%
     Max |d(i,j)-d*(j,i)| =  0.017658
     Max |d(i,j)-d*(j,i)|/|d(i,j)|: 130.8079%
     Max |d(i,j)-d*(j,i)| =  0.017658
     Max |d(i,j)-d*(j,i)|/|d(i,j)|: 696.3822%
     Max |d(i,j)-d*(j,i)| =  0.017658
     Max |d(i,j)-d*(j,i)|/|d(i,j)|: ********%
     Max |d(i,j)-d*(j,i)| =  0.017658
     Max |d(i,j)-d*(j,i)|/|d(i,j)|: 237.7694%
     Max |d(i,j)-d*(j,i)| =  0.017658
     Max |d(i,j)-d*(j,i)|/|d(i,j)|: 176.5119%
     Max |d(i,j)-d*(j,i)| =  0.017658
     Max |d(i,j)-d*(j,i)|/|d(i,j)|: 226.9862%
     Max |d(i,j)-d*(j,i)| =  0.017658
     Max |d(i,j)-d*(j,i)|/|d(i,j)|: 765.0450%
     Max |d(i,j)-d*(j,i)| =  0.017658
     Max |d(i,j)-d*(j,i)|/|d(i,j)|: 339.4598%
     Max |d(i,j)-d*(j,i)| =  0.017658
     Max |d(i,j)-d*(j,i)|/|d(i,j)|: 477.8623%
     Max |d(i,j)-d*(j,i)| =  0.017658
     Max |d(i,j)-d*(j,i)|/|d(i,j)|: 306.5869%
     Max |d(i,j)-d*(j,i)| =  0.017658
     Max |d(i,j)-d*(j,i)|/|d(i,j)|: 115.0645%
     Max |d(i,j)-d*(j,i)| =  0.017658
     Max |d(i,j)-d*(j,i)|/|d(i,j)|:  72.6690%
     Max |d(i,j)-d*(j,i)| =  0.017658
     Max |d(i,j)-d*(j,i)|/|d(i,j)|:  56.0476%
     Max |d(i,j)-d*(j,i)| =  0.017658
     Max |d(i,j)-d*(j,i)|/|d(i,j)|:  49.8225%
     Max |d(i,j)-d*(j,i)| =  0.017658
     Max |d(i,j)-d*(j,i)|/|d(i,j)|:  54.3761%
     Max |d(i,j)-d*(j,i)| =  0.017658
     Max |d(i,j)-d*(j,i)|/|d(i,j)|:  62.2362%
     Max |d(i,j)-d*(j,i)| =  0.017658
     Max |d(i,j)-d*(j,i)|/|d(i,j)|:  91.2203%
     Max |d(i,j)-d*(j,i)| =  0.017658
     Max |d(i,j)-d*(j,i)|/|d(i,j)|: 244.8393%
     Max |d(i,j)-d*(j,i)| =  0.017658
     Max |d(i,j)-d*(j,i)|/|d(i,j)|: 343.7985%
     Max |d(i,j)-d*(j,i)| =  0.017658
     Max |d(i,j)-d*(j,i)|/|d(i,j)|: 643.9872%
     Max |d(i,j)-d*(j,i)| =  0.017658
     Max |d(i,j)-d*(j,i)|/|d(i,j)|: 592.8484%
     Max |d(i,j)-d*(j,i)| =  0.017658
     Max |d(i,j)-d*(j,i)|/|d(i,j)|: 390.1882%
     Max |d(i,j)-d*(j,i)| =  0.017658
     Max |d(i,j)-d*(j,i)|/|d(i,j)|: 696.1273%
     Max |d(i,j)-d*(j,i)| =  0.017658
     Max |d(i,j)-d*(j,i)|/|d(i,j)|: 798.4099%
     Max |d(i,j)-d*(j,i)| =  0.017658
     Max |d(i,j)-d*(j,i)|/|d(i,j)|: 205.5179%
     Max |d(i,j)-d*(j,i)| =  0.017658
     Max |d(i,j)-d*(j,i)|/|d(i,j)|: ********%
     Max |d(i,j)-d*(j,i)| =  0.017658
     Max |d(i,j)-d*(j,i)|/|d(i,j)|: 194.6984%
     Max |d(i,j)-d*(j,i)| =  0.017658
     Max |d(i,j)-d*(j,i)|/|d(i,j)|:  96.5031%
     Max |d(i,j)-d*(j,i)| =  0.017658
     Max |d(i,j)-d*(j,i)|/|d(i,j)|:  67.2728%
     Max |d(i,j)-d*(j,i)| =  0.017658
     Max |d(i,j)-d*(j,i)|/|d(i,j)|:  56.1406%
     Max |d(i,j)-d*(j,i)| =  0.017658
     Max |d(i,j)-d*(j,i)|/|d(i,j)|:  57.2917%
     Max |d(i,j)-d*(j,i)| =  0.017658
     Max |d(i,j)-d*(j,i)|/|d(i,j)|:  59.4773%
     Max |d(i,j)-d*(j,i)| =  0.017658
     Max |d(i,j)-d*(j,i)|/|d(i,j)|:  73.4235%
     Max |d(i,j)-d*(j,i)| =  0.017658
     Max |d(i,j)-d*(j,i)|/|d(i,j)|: 117.7326%
     Max |d(i,j)-d*(j,i)| =  0.017658
     Max |d(i,j)-d*(j,i)|/|d(i,j)|: 395.2133%
     Max |d(i,j)-d*(j,i)| =  0.017658
     Max |d(i,j)-d*(j,i)|/|d(i,j)|: 325.7881%
     Max |d(i,j)-d*(j,i)| =  0.017658
     Max |d(i,j)-d*(j,i)|/|d(i,j)|: 383.8079%
     Max |d(i,j)-d*(j,i)| =  0.017658
     Max |d(i,j)-d*(j,i)|/|d(i,j)|: ********%
     Max |d(i,j)-d*(j,i)| =  0.017658
     Max |d(i,j)-d*(j,i)|/|d(i,j)|: ********%
     Max |d(i,j)-d*(j,i)| =  0.017658
     Max |d(i,j)-d*(j,i)|/|d(i,j)|: ********%
     Max |d(i,j)-d*(j,i)| =  0.017658
     Max |d(i,j)-d*(j,i)|/|d(i,j)|: 407.0633%
     Max |d(i,j)-d*(j,i)| =  0.017658
     Max |d(i,j)-d*(j,i)|/|d(i,j)|: 265.3156%
     Max |d(i,j)-d*(j,i)| =  0.017658
     Max |d(i,j)-d*(j,i)|/|d(i,j)|: 931.2670%
     Max |d(i,j)-d*(j,i)| =  0.017658
     Max |d(i,j)-d*(j,i)|/|d(i,j)|: 154.9205%
     Max |d(i,j)-d*(j,i)| =  0.017658
     Max |d(i,j)-d*(j,i)|/|d(i,j)|:  86.3082%
     Max |d(i,j)-d*(j,i)| =  0.017658
     Max |d(i,j)-d*(j,i)|/|d(i,j)|:  64.3617%
     Max |d(i,j)-d*(j,i)| =  0.017658
     Max |d(i,j)-d*(j,i)|/|d(i,j)|:  60.3167%
     Max |d(i,j)-d*(j,i)| =  0.017658
     Max |d(i,j)-d*(j,i)|/|d(i,j)|:  56.9680%
     Max |d(i,j)-d*(j,i)| =  0.017658
     Max |d(i,j)-d*(j,i)|/|d(i,j)|:  62.7077%
     Max |d(i,j)-d*(j,i)| =  0.017658
     Max |d(i,j)-d*(j,i)|/|d(i,j)|:  81.9364%
     Max |d(i,j)-d*(j,i)| =  0.017658
     Max |d(i,j)-d*(j,i)|/|d(i,j)|: 139.9151%
     Max |d(i,j)-d*(j,i)| =  0.017658
     Max |d(i,j)-d*(j,i)|/|d(i,j)|: 580.5667%
     Max |d(i,j)-d*(j,i)| =  0.017658
     Max |d(i,j)-d*(j,i)|/|d(i,j)|: 308.7940%
     Max |d(i,j)-d*(j,i)| =  0.017658
     Max |d(i,j)-d*(j,i)|/|d(i,j)|: 352.3490%
     Max |d(i,j)-d*(j,i)| =  0.017658
     Max |d(i,j)-d*(j,i)|/|d(i,j)|: ********%
     Max |d(i,j)-d*(j,i)| =  0.017658
     Max |d(i,j)-d*(j,i)|/|d(i,j)|: ********%
     Max |d(i,j)-d*(j,i)| =  0.017658
     Max |d(i,j)-d*(j,i)|/|d(i,j)|: ********%
     Max |d(i,j)-d*(j,i)| =  0.017658
     Max |d(i,j)-d*(j,i)|/|d(i,j)|: 426.1143%
     Max |d(i,j)-d*(j,i)| =  0.017658
     Max |d(i,j)-d*(j,i)|/|d(i,j)|: 285.4925%
     Max |d(i,j)-d*(j,i)| =  0.017658
     Max |d(i,j)-d*(j,i)|/|d(i,j)|: 510.2137%
     Max |d(i,j)-d*(j,i)| =  0.017658
     Max |d(i,j)-d*(j,i)|/|d(i,j)|: 126.7839%
     Max |d(i,j)-d*(j,i)| =  0.017658
     Max |d(i,j)-d*(j,i)|/|d(i,j)|:  76.1765%
     Max |d(i,j)-d*(j,i)| =  0.017658
     Max |d(i,j)-d*(j,i)|/|d(i,j)|:  63.8014%
     Max |d(i,j)-d*(j,i)| =  0.017658
     Max |d(i,j)-d*(j,i)|/|d(i,j)|:  54.5060%
     Max |d(i,j)-d*(j,i)| =  0.017658
     Max |d(i,j)-d*(j,i)|/|d(i,j)|:  55.1167%
     Max |d(i,j)-d*(j,i)| =  0.017658
     Max |d(i,j)-d*(j,i)|/|d(i,j)|:  64.5628%
     Max |d(i,j)-d*(j,i)| =  0.017658
     Max |d(i,j)-d*(j,i)|/|d(i,j)|:  89.7130%
     Max |d(i,j)-d*(j,i)| =  0.017658
     Max |d(i,j)-d*(j,i)|/|d(i,j)|: 168.0759%
     Max |d(i,j)-d*(j,i)| =  0.017658
     Max |d(i,j)-d*(j,i)|/|d(i,j)|: ********%
     Max |d(i,j)-d*(j,i)| =  0.017658
     Max |d(i,j)-d*(j,i)|/|d(i,j)|: 235.8216%
     Max |d(i,j)-d*(j,i)| =  0.017658
     Max |d(i,j)-d*(j,i)|/|d(i,j)|: 574.6485%
     Max |d(i,j)-d*(j,i)| =  0.017658
     Max |d(i,j)-d*(j,i)|/|d(i,j)|: 921.1693%
     Max |d(i,j)-d*(j,i)| =  0.017658
     Max |d(i,j)-d*(j,i)|/|d(i,j)|: 425.0888%
     Max |d(i,j)-d*(j,i)| =  0.017658
     Max |d(i,j)-d*(j,i)|/|d(i,j)|: 608.7287%
     Max |d(i,j)-d*(j,i)| =  0.017658
     Max |d(i,j)-d*(j,i)|/|d(i,j)|: 722.1496%
     Max |d(i,j)-d*(j,i)| =  0.017658
     Max |d(i,j)-d*(j,i)|/|d(i,j)|: 301.6710%
     Max |d(i,j)-d*(j,i)| =  0.017658
     Max |d(i,j)-d*(j,i)|/|d(i,j)|: 285.8372%
     Max |d(i,j)-d*(j,i)| =  0.017658
     Max |d(i,j)-d*(j,i)|/|d(i,j)|:  96.4700%
     Max |d(i,j)-d*(j,i)| =  0.017658
     Max |d(i,j)-d*(j,i)|/|d(i,j)|:  68.5150%
     Max |d(i,j)-d*(j,i)| =  0.017658
     Max |d(i,j)-d*(j,i)|/|d(i,j)|:  52.0264%
     Max |d(i,j)-d*(j,i)| =  0.017658
     Max |d(i,j)-d*(j,i)|/|d(i,j)|:  49.2154%
     Max |d(i,j)-d*(j,i)| =  0.017658
     Max |d(i,j)-d*(j,i)|/|d(i,j)|:  54.1243%
     Max |d(i,j)-d*(j,i)| =  0.017658
     Max |d(i,j)-d*(j,i)|/|d(i,j)|:  68.3738%
     Max |d(i,j)-d*(j,i)| =  0.017658
     Max |d(i,j)-d*(j,i)|/|d(i,j)|: 103.8302%
     Max |d(i,j)-d*(j,i)| =  0.017658
     Max |d(i,j)-d*(j,i)|/|d(i,j)|: 240.2991%
     Max |d(i,j)-d*(j,i)| =  0.017658
     Max |d(i,j)-d*(j,i)|/|d(i,j)|: 769.1509%
     Max |d(i,j)-d*(j,i)| =  0.017658
     Max |d(i,j)-d*(j,i)|/|d(i,j)|: 276.9928%
     Max |d(i,j)-d*(j,i)| =  0.017658
     Max |d(i,j)-d*(j,i)|/|d(i,j)|: ********%
     Max |d(i,j)-d*(j,i)| =  0.017658
     Max |d(i,j)-d*(j,i)|/|d(i,j)|: 252.2522%
     Max |d(i,j)-d*(j,i)| =  0.017658
     Max |d(i,j)-d*(j,i)|/|d(i,j)|: 187.1182%
     Max |d(i,j)-d*(j,i)| =  0.017658
     Max |d(i,j)-d*(j,i)|/|d(i,j)|: 245.0829%
     Max |d(i,j)-d*(j,i)| =  0.017658
     Max |d(i,j)-d*(j,i)|/|d(i,j)|: ********%
     Max |d(i,j)-d*(j,i)| =  0.017658
     Max |d(i,j)-d*(j,i)|/|d(i,j)|: 504.8343%
     Max |d(i,j)-d*(j,i)| =  0.017658
     Max |d(i,j)-d*(j,i)|/|d(i,j)|: 144.9047%
     Max |d(i,j)-d*(j,i)| =  0.017658
     Max |d(i,j)-d*(j,i)|/|d(i,j)|:  76.3158%
     Max |d(i,j)-d*(j,i)| =  0.017658
     Max |d(i,j)-d*(j,i)|/|d(i,j)|:  49.5405%
     Max |d(i,j)-d*(j,i)| =  0.017658
     Max |d(i,j)-d*(j,i)|/|d(i,j)|:  44.4482%
     Max |d(i,j)-d*(j,i)| =  0.017658
     Max |d(i,j)-d*(j,i)|/|d(i,j)|:  47.3407%
     Max |d(i,j)-d*(j,i)| =  0.017658
     Max |d(i,j)-d*(j,i)|/|d(i,j)|:  57.1801%
     Max |d(i,j)-d*(j,i)| =  0.017658
     Max |d(i,j)-d*(j,i)|/|d(i,j)|:  79.1077%
     Max |d(i,j)-d*(j,i)| =  0.017658
     Max |d(i,j)-d*(j,i)|/|d(i,j)|: 138.6433%
     Max |d(i,j)-d*(j,i)| =  0.017658
     Max |d(i,j)-d*(j,i)|/|d(i,j)|: 639.2518%
     Max |d(i,j)-d*(j,i)| =  0.017658
     Max |d(i,j)-d*(j,i)|/|d(i,j)|: 245.3236%
     Max |d(i,j)-d*(j,i)| =  0.017658
     Max |d(i,j)-d*(j,i)|/|d(i,j)|: ********%
     Max |d(i,j)-d*(j,i)| =  0.017658
     Max |d(i,j)-d*(j,i)|/|d(i,j)|: 231.1936%
     Max |d(i,j)-d*(j,i)| =  0.017658
     Max |d(i,j)-d*(j,i)|/|d(i,j)|: 126.1082%
     Max |d(i,j)-d*(j,i)| =  0.017658
     Max |d(i,j)-d*(j,i)|/|d(i,j)|: 109.0114%
     Max |d(i,j)-d*(j,i)| =  0.017658
     Max |d(i,j)-d*(j,i)|/|d(i,j)|: 152.9713%
     Max |d(i,j)-d*(j,i)| =  0.017658
     Max |d(i,j)-d*(j,i)|/|d(i,j)|: ********%
     Max |d(i,j)-d*(j,i)| =  0.017658
     Max |d(i,j)-d*(j,i)|/|d(i,j)|: 462.8708%
     Max |d(i,j)-d*(j,i)| =  0.017658
     Max |d(i,j)-d*(j,i)|/|d(i,j)|:  93.1576%
     Max |d(i,j)-d*(j,i)| =  0.017658
     Max |d(i,j)-d*(j,i)|/|d(i,j)|:  47.1229%
     Max |d(i,j)-d*(j,i)| =  0.017658
     Max |d(i,j)-d*(j,i)|/|d(i,j)|:  40.7177%
     Max |d(i,j)-d*(j,i)| =  0.017658
     Max |d(i,j)-d*(j,i)|/|d(i,j)|:  43.2656%
     Max |d(i,j)-d*(j,i)| =  0.017658
     Max |d(i,j)-d*(j,i)|/|d(i,j)|:  51.6892%
     Max |d(i,j)-d*(j,i)| =  0.017658
     Max |d(i,j)-d*(j,i)|/|d(i,j)|:  68.4637%
     Max |d(i,j)-d*(j,i)| =  0.017658
     Max |d(i,j)-d*(j,i)|/|d(i,j)|: 105.7301%
     Max |d(i,j)-d*(j,i)| =  0.017658
     Max |d(i,j)-d*(j,i)|/|d(i,j)|: 244.4078%
     Max |d(i,j)-d*(j,i)| =  0.017658
     Max |d(i,j)-d*(j,i)|/|d(i,j)|: 690.3692%
     Max |d(i,j)-d*(j,i)| =  0.017658
     Max |d(i,j)-d*(j,i)|/|d(i,j)|: 348.9792%
     Max |d(i,j)-d*(j,i)| =  0.017658
     Max |d(i,j)-d*(j,i)|/|d(i,j)|: 351.2016%
     Max |d(i,j)-d*(j,i)| =  0.017658
     Max |d(i,j)-d*(j,i)|/|d(i,j)|: 121.7744%
     Max |d(i,j)-d*(j,i)| =  0.017658
     Max |d(i,j)-d*(j,i)|/|d(i,j)|:  81.3873%
     Max |d(i,j)-d*(j,i)| =  0.017658
     Max |d(i,j)-d*(j,i)|/|d(i,j)|:  76.3180%
     Max |d(i,j)-d*(j,i)| =  0.017658
     Max |d(i,j)-d*(j,i)|/|d(i,j)|: 129.8659%
     Max |d(i,j)-d*(j,i)| =  0.017658
     Max |d(i,j)-d*(j,i)|/|d(i,j)|: 208.7561%
     Max |d(i,j)-d*(j,i)| =  0.017658
     Max |d(i,j)-d*(j,i)|/|d(i,j)|: 155.6348%
     Max |d(i,j)-d*(j,i)| =  0.017658
     Max |d(i,j)-d*(j,i)|/|d(i,j)|:  45.0421%
     Max |d(i,j)-d*(j,i)| =  0.017658
     Max |d(i,j)-d*(j,i)|/|d(i,j)|:  38.5038%
     Max |d(i,j)-d*(j,i)| =  0.017658
     Max |d(i,j)-d*(j,i)|/|d(i,j)|:  42.4211%
     Max |d(i,j)-d*(j,i)| =  0.017658
     Max |d(i,j)-d*(j,i)|/|d(i,j)|:  51.6651%
     Max |d(i,j)-d*(j,i)| =  0.017658
     Max |d(i,j)-d*(j,i)|/|d(i,j)|:  67.4010%
     Max |d(i,j)-d*(j,i)| =  0.017658
     Max |d(i,j)-d*(j,i)|/|d(i,j)|:  96.7400%
     Max |d(i,j)-d*(j,i)| =  0.017658
     Max |d(i,j)-d*(j,i)|/|d(i,j)|: 172.3613%
     Max |d(i,j)-d*(j,i)| =  0.017658
     Max |d(i,j)-d*(j,i)|/|d(i,j)|: 920.0228%
     Max |d(i,j)-d*(j,i)| =  0.017658
     Max |d(i,j)-d*(j,i)|/|d(i,j)|: 253.3474%
     Max |d(i,j)-d*(j,i)| =  0.017658
     Max |d(i,j)-d*(j,i)|/|d(i,j)|: ********%
     Max |d(i,j)-d*(j,i)| =  0.017658
     Max |d(i,j)-d*(j,i)|/|d(i,j)|: 190.7343%
     Max |d(i,j)-d*(j,i)| =  0.017658
     Max |d(i,j)-d*(j,i)|/|d(i,j)|:  89.4170%
     Max |d(i,j)-d*(j,i)| =  0.017658
     Max |d(i,j)-d*(j,i)|/|d(i,j)|:  62.4474%
     Max |d(i,j)-d*(j,i)| =  0.017658
     Max |d(i,j)-d*(j,i)|/|d(i,j)|:  61.8694%
     Max |d(i,j)-d*(j,i)| =  0.017658
     Max |d(i,j)-d*(j,i)|/|d(i,j)|: 196.0023%
     Max |d(i,j)-d*(j,i)| =  0.017658
     Max |d(i,j)-d*(j,i)|/|d(i,j)|: 388.1152%
     Max |d(i,j)-d*(j,i)| =  0.017658
     Max |d(i,j)-d*(j,i)|/|d(i,j)|:  44.8611%
     Max |d(i,j)-d*(j,i)| =  0.017658
     Max |d(i,j)-d*(j,i)|/|d(i,j)|:  40.4393%
     Max |d(i,j)-d*(j,i)| =  0.017658
     Max |d(i,j)-d*(j,i)|/|d(i,j)|:  48.9131%
     Max |d(i,j)-d*(j,i)| =  0.017658
     Max |d(i,j)-d*(j,i)|/|d(i,j)|:  62.3432%
     Max |d(i,j)-d*(j,i)| =  0.017658
     Max |d(i,j)-d*(j,i)|/|d(i,j)|:  80.9763%
     Max |d(i,j)-d*(j,i)| =  0.017658
     Max |d(i,j)-d*(j,i)|/|d(i,j)|: 109.4236%
     Max |d(i,j)-d*(j,i)| =  0.017658
     Max |d(i,j)-d*(j,i)|/|d(i,j)|: 164.5163%
     Max |d(i,j)-d*(j,i)| =  0.017658
     Max |d(i,j)-d*(j,i)|/|d(i,j)|: 345.5040%
     Max |d(i,j)-d*(j,i)| =  0.017658
     Max |d(i,j)-d*(j,i)|/|d(i,j)|: ********%
     Max |d(i,j)-d*(j,i)| =  0.017658
     Max |d(i,j)-d*(j,i)|/|d(i,j)|: 215.8774%
     Max |d(i,j)-d*(j,i)| =  0.017658
     Max |d(i,j)-d*(j,i)|/|d(i,j)|: ********%
     Max |d(i,j)-d*(j,i)| =  0.017658
     Max |d(i,j)-d*(j,i)|/|d(i,j)|: 212.0196%
     Max |d(i,j)-d*(j,i)| =  0.017658
     Max |d(i,j)-d*(j,i)|/|d(i,j)|:  91.1374%
     Max |d(i,j)-d*(j,i)| =  0.017658
     Max |d(i,j)-d*(j,i)|/|d(i,j)|:  58.5231%
     Max |d(i,j)-d*(j,i)| =  0.017658
     Max |d(i,j)-d*(j,i)|/|d(i,j)|:  60.8930%
     Max |d(i,j)-d*(j,i)| =  0.017658
     Max |d(i,j)-d*(j,i)|/|d(i,j)|: 208.5258%
     Max |d(i,j)-d*(j,i)| =  0.017658
     Max |d(i,j)-d*(j,i)|/|d(i,j)|: 470.5868%
     Max |d(i,j)-d*(j,i)| =  0.017658
     Max |d(i,j)-d*(j,i)|/|d(i,j)|:  71.9213%
     Max |d(i,j)-d*(j,i)| =  0.017658
     Max |d(i,j)-d*(j,i)|/|d(i,j)|:  67.1076%
     Max |d(i,j)-d*(j,i)| =  0.017658
     Max |d(i,j)-d*(j,i)|/|d(i,j)|:  78.1871%
     Max |d(i,j)-d*(j,i)| =  0.017658
     Max |d(i,j)-d*(j,i)|/|d(i,j)|:  95.2441%
     Max |d(i,j)-d*(j,i)| =  0.017658
     Max |d(i,j)-d*(j,i)|/|d(i,j)|: 118.4352%
     Max |d(i,j)-d*(j,i)| =  0.017658
     Max |d(i,j)-d*(j,i)|/|d(i,j)|: 154.4090%
     Max |d(i,j)-d*(j,i)| =  0.017658
     Max |d(i,j)-d*(j,i)|/|d(i,j)|: 227.8878%
     Max |d(i,j)-d*(j,i)| =  0.017658
     Max |d(i,j)-d*(j,i)|/|d(i,j)|: 497.1107%
     Max |d(i,j)-d*(j,i)| =  0.017658
     Max |d(i,j)-d*(j,i)|/|d(i,j)|: ********%
     Max |d(i,j)-d*(j,i)| =  0.017658
     Max |d(i,j)-d*(j,i)|/|d(i,j)|: 250.6004%
     Max |d(i,j)-d*(j,i)| =  0.017658
     Max |d(i,j)-d*(j,i)|/|d(i,j)|: 434.4786%
     Max |d(i,j)-d*(j,i)| =  0.017658
     Max |d(i,j)-d*(j,i)|/|d(i,j)|: 537.8875%
     Max |d(i,j)-d*(j,i)| =  0.017658
     Max |d(i,j)-d*(j,i)|/|d(i,j)|: 161.2707%
     Max |d(i,j)-d*(j,i)| =  0.017658
     Max |d(i,j)-d*(j,i)|/|d(i,j)|: 108.9781%
     Max |d(i,j)-d*(j,i)| =  0.017658
     Max |d(i,j)-d*(j,i)|/|d(i,j)|: 208.4504%
     Max |d(i,j)-d*(j,i)| =  0.017658
     Max |d(i,j)-d*(j,i)|/|d(i,j)|: 296.9092%
     Max |d(i,j)-d*(j,i)| =  0.017658
     Max |d(i,j)-d*(j,i)|/|d(i,j)|: ********%
     Max |d(i,j)-d*(j,i)| =  0.017658
     Max |d(i,j)-d*(j,i)|/|d(i,j)|: ********%
     Max |d(i,j)-d*(j,i)| =  0.017658
     Max |d(i,j)-d*(j,i)|/|d(i,j)|: 802.3587%
     Max |d(i,j)-d*(j,i)| =  0.017658
     Max |d(i,j)-d*(j,i)|/|d(i,j)|: 564.0535%
     Max |d(i,j)-d*(j,i)| =  0.017658
     Max |d(i,j)-d*(j,i)|/|d(i,j)|: 432.2182%
     Max |d(i,j)-d*(j,i)| =  0.017658
     Max |d(i,j)-d*(j,i)|/|d(i,j)|: 367.9337%
     Max |d(i,j)-d*(j,i)| =  0.017658
     Max |d(i,j)-d*(j,i)|/|d(i,j)|: 350.8121%
     Max |d(i,j)-d*(j,i)| =  0.017658
     Max |d(i,j)-d*(j,i)|/|d(i,j)|: 380.8649%
     Max |d(i,j)-d*(j,i)| =  0.017658
     Max |d(i,j)-d*(j,i)|/|d(i,j)|: 495.8172%
     Max |d(i,j)-d*(j,i)| =  0.017658
     Max |d(i,j)-d*(j,i)|/|d(i,j)|: 947.2500%
     Max |d(i,j)-d*(j,i)| =  0.017658
     Max |d(i,j)-d*(j,i)|/|d(i,j)|: ********%
     Max |d(i,j)-d*(j,i)| =  0.017658
     Max |d(i,j)-d*(j,i)|/|d(i,j)|: 628.5449%
     Max |d(i,j)-d*(j,i)| =  0.017658
     Max |d(i,j)-d*(j,i)|/|d(i,j)|: 326.3757%
     Max |d(i,j)-d*(j,i)| =  0.017658
     Max |d(i,j)-d*(j,i)|/|d(i,j)|: 224.5675%
     Max |d(i,j)-d*(j,i)| =  0.017658
     Max |d(i,j)-d*(j,i)|/|d(i,j)|:  87.2792%
     Max |d(i,j)-d*(j,i)| =  0.017658
     Max |d(i,j)-d*(j,i)|/|d(i,j)|: 235.6063%
     Max |d(i,j)-d*(j,i)| =  0.017658
     Max |d(i,j)-d*(j,i)|/|d(i,j)|: 940.0683%
     Max |d(i,j)-d*(j,i)| =  0.017658
     Max |d(i,j)-d*(j,i)|/|d(i,j)|: 167.2538%
     Max |d(i,j)-d*(j,i)| =  0.017658
     Max |d(i,j)-d*(j,i)|/|d(i,j)|: 297.6511%
     Max |d(i,j)-d*(j,i)| =  0.017658
     Max |d(i,j)-d*(j,i)|/|d(i,j)|: ********%
     Max |d(i,j)-d*(j,i)| =  0.017658
     Max |d(i,j)-d*(j,i)|/|d(i,j)|: 244.4881%
     Max |d(i,j)-d*(j,i)| =  0.017658
     Max |d(i,j)-d*(j,i)|/|d(i,j)|: 349.9876%
     Max |d(i,j)-d*(j,i)| =  0.017658
     Max |d(i,j)-d*(j,i)|/|d(i,j)|: ********%
     Max |d(i,j)-d*(j,i)| =  0.017658
     Max |d(i,j)-d*(j,i)|/|d(i,j)|: 599.4764%
     Max |d(i,j)-d*(j,i)| =  0.017658
     Max |d(i,j)-d*(j,i)|/|d(i,j)|: 306.6306%
     Max |d(i,j)-d*(j,i)| =  0.017658
     Max |d(i,j)-d*(j,i)|/|d(i,j)|: 218.9870%
     Max |d(i,j)-d*(j,i)| =  0.017658
     Max |d(i,j)-d*(j,i)|/|d(i,j)|: 173.3108%
     Max |d(i,j)-d*(j,i)| =  0.017658
     Max |d(i,j)-d*(j,i)|/|d(i,j)|: 140.7861%
     Max |d(i,j)-d*(j,i)| =  0.017658
     Max |d(i,j)-d*(j,i)|/|d(i,j)|: 113.7750%
     Max |d(i,j)-d*(j,i)| =  0.017658
     Max |d(i,j)-d*(j,i)|/|d(i,j)|:  92.7639%
     Max |d(i,j)-d*(j,i)| =  0.017658
     Max |d(i,j)-d*(j,i)|/|d(i,j)|:  52.2982%
     Max |d(i,j)-d*(j,i)| =  0.017658
     Max |d(i,j)-d*(j,i)|/|d(i,j)|:  85.4248%
     Max |d(i,j)-d*(j,i)| =  0.017658
     Max |d(i,j)-d*(j,i)|/|d(i,j)|: 257.4476%
     Max |d(i,j)-d*(j,i)| =  0.017658
     Max |d(i,j)-d*(j,i)|/|d(i,j)|:  98.5439%
     Max |d(i,j)-d*(j,i)| =  0.017658
     Max |d(i,j)-d*(j,i)|/|d(i,j)|:  80.4760%
     Max |d(i,j)-d*(j,i)| =  0.017658
     Max |d(i,j)-d*(j,i)|/|d(i,j)|: 113.1421%
     Max |d(i,j)-d*(j,i)| =  0.017658
     Max |d(i,j)-d*(j,i)|/|d(i,j)|: 260.5063%
     Max |d(i,j)-d*(j,i)| =  0.017658
     Max |d(i,j)-d*(j,i)|/|d(i,j)|: 939.5332%
     Max |d(i,j)-d*(j,i)| =  0.017658
     Max |d(i,j)-d*(j,i)|/|d(i,j)|: 221.5048%
     Max |d(i,j)-d*(j,i)| =  0.017658
     Max |d(i,j)-d*(j,i)|/|d(i,j)|: ********%
     Max |d(i,j)-d*(j,i)| =  0.017658
     Max |d(i,j)-d*(j,i)|/|d(i,j)|: 351.1517%
     Max |d(i,j)-d*(j,i)| =  0.017658
     Max |d(i,j)-d*(j,i)|/|d(i,j)|: 166.0696%
     Max |d(i,j)-d*(j,i)| =  0.017658
     Max |d(i,j)-d*(j,i)|/|d(i,j)|: 109.9686%
     Max |d(i,j)-d*(j,i)| =  0.017658
     Max |d(i,j)-d*(j,i)|/|d(i,j)|:  81.6326%
     Max |d(i,j)-d*(j,i)| =  0.017658
     Max |d(i,j)-d*(j,i)|/|d(i,j)|:  64.2823%
     Max |d(i,j)-d*(j,i)| =  0.017658
     Max |d(i,j)-d*(j,i)|/|d(i,j)|:  53.8747%
     Max |d(i,j)-d*(j,i)| =  0.017658
     Max |d(i,j)-d*(j,i)|/|d(i,j)|:  48.0375%
     Max |d(i,j)-d*(j,i)| =  0.017658
     Max |d(i,j)-d*(j,i)|/|d(i,j)|:  67.6428%
     Max |d(i,j)-d*(j,i)| =  0.017658
     Max |d(i,j)-d*(j,i)|/|d(i,j)|: 867.5812%
     Max |d(i,j)-d*(j,i)| =  0.017658
     Max |d(i,j)-d*(j,i)|/|d(i,j)|: 259.9118%
     Max |d(i,j)-d*(j,i)| =  0.017658
     Max |d(i,j)-d*(j,i)|/|d(i,j)|:  84.6576%
     Max |d(i,j)-d*(j,i)| =  0.017658
     Max |d(i,j)-d*(j,i)|/|d(i,j)|:  81.5887%
     Max |d(i,j)-d*(j,i)| =  0.017658
     Max |d(i,j)-d*(j,i)|/|d(i,j)|: 114.7462%
     Max |d(i,j)-d*(j,i)| =  0.017658
     Max |d(i,j)-d*(j,i)|/|d(i,j)|: 265.9194%
     Max |d(i,j)-d*(j,i)| =  0.017658
     Max |d(i,j)-d*(j,i)|/|d(i,j)|: 699.2002%
     Max |d(i,j)-d*(j,i)| =  0.017658
     Max |d(i,j)-d*(j,i)|/|d(i,j)|: 280.0054%
     Max |d(i,j)-d*(j,i)| =  0.017658
     Max |d(i,j)-d*(j,i)|/|d(i,j)|: 879.8394%
     Max |d(i,j)-d*(j,i)| =  0.017658
     Max |d(i,j)-d*(j,i)|/|d(i,j)|: 178.7306%
     Max |d(i,j)-d*(j,i)| =  0.017658
     Max |d(i,j)-d*(j,i)|/|d(i,j)|: 101.1486%
     Max |d(i,j)-d*(j,i)| =  0.017658
     Max |d(i,j)-d*(j,i)|/|d(i,j)|:  71.1935%
     Max |d(i,j)-d*(j,i)| =  0.017658
     Max |d(i,j)-d*(j,i)|/|d(i,j)|:  55.8369%
     Max |d(i,j)-d*(j,i)| =  0.017658
     Max |d(i,j)-d*(j,i)|/|d(i,j)|:  48.1252%
     Max |d(i,j)-d*(j,i)| =  0.017658
     Max |d(i,j)-d*(j,i)|/|d(i,j)|:  49.1741%
     Max |d(i,j)-d*(j,i)| =  0.017658
     Max |d(i,j)-d*(j,i)|/|d(i,j)|:  62.8946%
     Max |d(i,j)-d*(j,i)| =  0.017658
     Max |d(i,j)-d*(j,i)|/|d(i,j)|: 161.4497%
     Max |d(i,j)-d*(j,i)| =  0.017658
     Max |d(i,j)-d*(j,i)|/|d(i,j)|: 255.6782%
     Max |d(i,j)-d*(j,i)| =  0.017658
     Max |d(i,j)-d*(j,i)|/|d(i,j)|: 173.6354%
     Max |d(i,j)-d*(j,i)| =  0.017658
     Max |d(i,j)-d*(j,i)|/|d(i,j)|: 100.5298%
     Max |d(i,j)-d*(j,i)| =  0.017658
     Max |d(i,j)-d*(j,i)|/|d(i,j)|: 106.2548%
     Max |d(i,j)-d*(j,i)| =  0.017658
     Max |d(i,j)-d*(j,i)|/|d(i,j)|: 163.9951%
     Max |d(i,j)-d*(j,i)| =  0.017658
     Max |d(i,j)-d*(j,i)|/|d(i,j)|: 667.2662%
     Max |d(i,j)-d*(j,i)| =  0.017658
     Max |d(i,j)-d*(j,i)|/|d(i,j)|: 280.3830%
     Max |d(i,j)-d*(j,i)| =  0.017658
     Max |d(i,j)-d*(j,i)|/|d(i,j)|: 783.3548%
     Max |d(i,j)-d*(j,i)| =  0.017658
     Max |d(i,j)-d*(j,i)|/|d(i,j)|: 261.6832%
     Max |d(i,j)-d*(j,i)| =  0.017658
     Max |d(i,j)-d*(j,i)|/|d(i,j)|: 113.9046%
     Max |d(i,j)-d*(j,i)| =  0.017658
     Max |d(i,j)-d*(j,i)|/|d(i,j)|:  74.2843%
     Max |d(i,j)-d*(j,i)| =  0.017658
     Max |d(i,j)-d*(j,i)|/|d(i,j)|:  57.0190%
     Max |d(i,j)-d*(j,i)| =  0.017658
     Max |d(i,j)-d*(j,i)|/|d(i,j)|:  49.3121%
     Max |d(i,j)-d*(j,i)| =  0.017658
     Max |d(i,j)-d*(j,i)|/|d(i,j)|:  52.2411%
     Max |d(i,j)-d*(j,i)| =  0.017658
     Max |d(i,j)-d*(j,i)|/|d(i,j)|:  61.4877%
     Max |d(i,j)-d*(j,i)| =  0.017658
     Max |d(i,j)-d*(j,i)|/|d(i,j)|: 104.8571%
     Max |d(i,j)-d*(j,i)| =  0.017658
     Max |d(i,j)-d*(j,i)|/|d(i,j)|: ********%
     Max |d(i,j)-d*(j,i)| =  0.017658
     Max |d(i,j)-d*(j,i)|/|d(i,j)|: 773.1979%
     Max |d(i,j)-d*(j,i)| =  0.017658
     Max |d(i,j)-d*(j,i)|/|d(i,j)|: 214.4829%
     Max |d(i,j)-d*(j,i)| =  0.017658
     Max |d(i,j)-d*(j,i)|/|d(i,j)|: 146.8735%
     Max |d(i,j)-d*(j,i)| =  0.017658
     Max |d(i,j)-d*(j,i)|/|d(i,j)|: 171.5302%
     Max |d(i,j)-d*(j,i)| =  0.017658
     Max |d(i,j)-d*(j,i)|/|d(i,j)|: 355.1708%
     Max |d(i,j)-d*(j,i)| =  0.017658
     Max |d(i,j)-d*(j,i)|/|d(i,j)|: 732.7786%
     Max |d(i,j)-d*(j,i)| =  0.017658
     Max |d(i,j)-d*(j,i)|/|d(i,j)|: 260.9816%
     Max |d(i,j)-d*(j,i)| =  0.017658
     Max |d(i,j)-d*(j,i)|/|d(i,j)|: 784.2541%
     Max |d(i,j)-d*(j,i)| =  0.017658
     Max |d(i,j)-d*(j,i)|/|d(i,j)|: 155.1511%
     Max |d(i,j)-d*(j,i)| =  0.017658
     Max |d(i,j)-d*(j,i)|/|d(i,j)|:  87.7752%
     Max |d(i,j)-d*(j,i)| =  0.017658
     Max |d(i,j)-d*(j,i)|/|d(i,j)|:  63.8027%
     Max |d(i,j)-d*(j,i)| =  0.017658
     Max |d(i,j)-d*(j,i)|/|d(i,j)|:  53.8005%
     Max |d(i,j)-d*(j,i)| =  0.017658
     Max |d(i,j)-d*(j,i)|/|d(i,j)|:  56.4031%
     Max |d(i,j)-d*(j,i)| =  0.017658
     Max |d(i,j)-d*(j,i)|/|d(i,j)|:  61.2157%
     Max |d(i,j)-d*(j,i)| =  0.017658
     Max |d(i,j)-d*(j,i)|/|d(i,j)|:  83.9826%
     Max |d(i,j)-d*(j,i)| =  0.017658
     Max |d(i,j)-d*(j,i)|/|d(i,j)|: 195.6943%
     Max |d(i,j)-d*(j,i)| =  0.017658
     Max |d(i,j)-d*(j,i)|/|d(i,j)|: 418.0647%
     Max |d(i,j)-d*(j,i)| =  0.017658
     Max |d(i,j)-d*(j,i)|/|d(i,j)|: 751.1551%
     Max |d(i,j)-d*(j,i)| =  0.017658
     Max |d(i,j)-d*(j,i)|/|d(i,j)|: 400.5924%
     Max |d(i,j)-d*(j,i)| =  0.017658
     Max |d(i,j)-d*(j,i)|/|d(i,j)|: 272.3894%
     Max |d(i,j)-d*(j,i)| =  0.017658
     Max |d(i,j)-d*(j,i)|/|d(i,j)|: 379.9691%
     Max |d(i,j)-d*(j,i)| =  0.017658
     Max |d(i,j)-d*(j,i)|/|d(i,j)|: ********%
     Max |d(i,j)-d*(j,i)| =  0.017658
     Max |d(i,j)-d*(j,i)|/|d(i,j)|: 261.5136%
     Max |d(i,j)-d*(j,i)| =  0.017658
     Max |d(i,j)-d*(j,i)|/|d(i,j)|: 618.1995%
     Max |d(i,j)-d*(j,i)| =  0.017658
     Max |d(i,j)-d*(j,i)|/|d(i,j)|: 295.7821%
     Max |d(i,j)-d*(j,i)| =  0.017658
     Max |d(i,j)-d*(j,i)|/|d(i,j)|: 118.6407%
     Max |d(i,j)-d*(j,i)| =  0.017658
     Max |d(i,j)-d*(j,i)|/|d(i,j)|:  76.9714%
     Max |d(i,j)-d*(j,i)| =  0.017658
     Max |d(i,j)-d*(j,i)|/|d(i,j)|:  61.1027%
     Max |d(i,j)-d*(j,i)| =  0.017658
     Max |d(i,j)-d*(j,i)|/|d(i,j)|:  61.5695%
     Max |d(i,j)-d*(j,i)| =  0.017658
     Max |d(i,j)-d*(j,i)|/|d(i,j)|:  61.3678%
     Max |d(i,j)-d*(j,i)| =  0.017658
     Max |d(i,j)-d*(j,i)|/|d(i,j)|:  72.7644%
     Max |d(i,j)-d*(j,i)| =  0.017658
     Max |d(i,j)-d*(j,i)|/|d(i,j)|: 111.8137%
     Max |d(i,j)-d*(j,i)| =  0.017658
     Max |d(i,j)-d*(j,i)|/|d(i,j)|: 343.9523%
     Max |d(i,j)-d*(j,i)| =  0.017658
     Max |d(i,j)-d*(j,i)|/|d(i,j)|: 330.9189%
     Max |d(i,j)-d*(j,i)| =  0.017658
     Max |d(i,j)-d*(j,i)|/|d(i,j)|: 433.9664%
     Max |d(i,j)-d*(j,i)| =  0.017658
     Max |d(i,j)-d*(j,i)|/|d(i,j)|: ********%
     Max |d(i,j)-d*(j,i)| =  0.017658
     Max |d(i,j)-d*(j,i)|/|d(i,j)|: 721.5864%
     Max |d(i,j)-d*(j,i)| =  0.017658
     Max |d(i,j)-d*(j,i)|/|d(i,j)|: ********%
     Max |d(i,j)-d*(j,i)| =  0.017658
     Max |d(i,j)-d*(j,i)|/|d(i,j)|: 550.3430%
     Max |d(i,j)-d*(j,i)| =  0.017658
     Max |d(i,j)-d*(j,i)|/|d(i,j)|: 216.1796%
     Max |d(i,j)-d*(j,i)| =  0.017658
     Max |d(i,j)-d*(j,i)|/|d(i,j)|: ********%
     Max |d(i,j)-d*(j,i)| =  0.017658
     Max |d(i,j)-d*(j,i)|/|d(i,j)|: 205.4728%
     Max |d(i,j)-d*(j,i)| =  0.017658
     Max |d(i,j)-d*(j,i)|/|d(i,j)|: 102.1888%
     Max |d(i,j)-d*(j,i)| =  0.017658
     Max |d(i,j)-d*(j,i)|/|d(i,j)|:  72.2030%
     Max |d(i,j)-d*(j,i)| =  0.017658
     Max |d(i,j)-d*(j,i)|/|d(i,j)|:  68.1531%
     Max |d(i,j)-d*(j,i)| =  0.017658
     Max |d(i,j)-d*(j,i)|/|d(i,j)|:  61.7192%
     Max |d(i,j)-d*(j,i)| =  0.017658
     Max |d(i,j)-d*(j,i)|/|d(i,j)|:  65.4095%
     Max |d(i,j)-d*(j,i)| =  0.017658
     Max |d(i,j)-d*(j,i)|/|d(i,j)|:  82.5520%
     Max |d(i,j)-d*(j,i)| =  0.017658
     Max |d(i,j)-d*(j,i)|/|d(i,j)|: 135.9698%
     Max |d(i,j)-d*(j,i)| =  0.017658
     Max |d(i,j)-d*(j,i)|/|d(i,j)|: 504.4732%
     Max |d(i,j)-d*(j,i)| =  0.017658
     Max |d(i,j)-d*(j,i)|/|d(i,j)|: 329.1410%
     Max |d(i,j)-d*(j,i)| =  0.017658
     Max |d(i,j)-d*(j,i)|/|d(i,j)|: 333.2070%
     Max |d(i,j)-d*(j,i)| =  0.017658
     Max |d(i,j)-d*(j,i)|/|d(i,j)|: ********%
     Max |d(i,j)-d*(j,i)| =  0.017658
     Max |d(i,j)-d*(j,i)|/|d(i,j)|: ********%
     Max |d(i,j)-d*(j,i)| =  0.017658
     Max |d(i,j)-d*(j,i)|/|d(i,j)|: ********%
     Max |d(i,j)-d*(j,i)| =  0.017658
     Max |d(i,j)-d*(j,i)|/|d(i,j)|: 425.8735%
     Max |d(i,j)-d*(j,i)| =  0.017658
     Max |d(i,j)-d*(j,i)|/|d(i,j)|: 249.9268%
     Max |d(i,j)-d*(j,i)| =  0.017658
     Max |d(i,j)-d*(j,i)|/|d(i,j)|: ********%
     Max |d(i,j)-d*(j,i)| =  0.017658
     Max |d(i,j)-d*(j,i)|/|d(i,j)|: 163.9598%
     Max |d(i,j)-d*(j,i)| =  0.017658
     Max |d(i,j)-d*(j,i)|/|d(i,j)|:  90.5111%
     Max |d(i,j)-d*(j,i)| =  0.017658
     Max |d(i,j)-d*(j,i)|/|d(i,j)|:  77.3587%
     Max |d(i,j)-d*(j,i)| =  0.017658
     Max |d(i,j)-d*(j,i)|/|d(i,j)|:  62.2876%
     Max |d(i,j)-d*(j,i)| =  0.017658
     Max |d(i,j)-d*(j,i)|/|d(i,j)|:  59.9660%
     Max |d(i,j)-d*(j,i)| =  0.017658
     Max |d(i,j)-d*(j,i)|/|d(i,j)|:  67.2687%
     Max |d(i,j)-d*(j,i)| =  0.017658
     Max |d(i,j)-d*(j,i)|/|d(i,j)|:  89.5843%
     Max |d(i,j)-d*(j,i)| =  0.017658
     Max |d(i,j)-d*(j,i)|/|d(i,j)|: 157.4608%
     Max |d(i,j)-d*(j,i)| =  0.017658
     Max |d(i,j)-d*(j,i)|/|d(i,j)|: 804.4294%
     Max |d(i,j)-d*(j,i)| =  0.017658
     Max |d(i,j)-d*(j,i)|/|d(i,j)|: 287.4272%
     Max |d(i,j)-d*(j,i)| =  0.017658
     Max |d(i,j)-d*(j,i)|/|d(i,j)|: 374.3377%
     Max |d(i,j)-d*(j,i)| =  0.017658
     Max |d(i,j)-d*(j,i)|/|d(i,j)|: ********%
     Max |d(i,j)-d*(j,i)| =  0.017658
     Max |d(i,j)-d*(j,i)|/|d(i,j)|: 871.5983%
     Max |d(i,j)-d*(j,i)| =  0.017658
     Max |d(i,j)-d*(j,i)|/|d(i,j)|: ********%
     Max |d(i,j)-d*(j,i)| =  0.017658
     Max |d(i,j)-d*(j,i)|/|d(i,j)|: 540.5908%
     Max |d(i,j)-d*(j,i)| =  0.017658
     Max |d(i,j)-d*(j,i)|/|d(i,j)|: 260.0692%
     Max |d(i,j)-d*(j,i)| =  0.017658
     Max |d(i,j)-d*(j,i)|/|d(i,j)|: 551.2714%
     Max |d(i,j)-d*(j,i)| =  0.017658
     Max |d(i,j)-d*(j,i)|/|d(i,j)|: 127.8108%
     Max |d(i,j)-d*(j,i)| =  0.017658
     Max |d(i,j)-d*(j,i)|/|d(i,j)|:  92.3939%
     Max |d(i,j)-d*(j,i)| =  0.017658
     Max |d(i,j)-d*(j,i)|/|d(i,j)|:  63.2937%
     Max |d(i,j)-d*(j,i)| =  0.017658
     Max |d(i,j)-d*(j,i)|/|d(i,j)|:  55.6593%
     Max |d(i,j)-d*(j,i)| =  0.017658
     Max |d(i,j)-d*(j,i)|/|d(i,j)|:  57.6950%
     Max |d(i,j)-d*(j,i)| =  0.017658
     Max |d(i,j)-d*(j,i)|/|d(i,j)|:  69.1219%
     Max |d(i,j)-d*(j,i)| =  0.017658
     Max |d(i,j)-d*(j,i)|/|d(i,j)|:  98.6549%
     Max |d(i,j)-d*(j,i)| =  0.017658
     Max |d(i,j)-d*(j,i)|/|d(i,j)|: 196.9649%
     Max |d(i,j)-d*(j,i)| =  0.017658
     Max |d(i,j)-d*(j,i)|/|d(i,j)|: ********%
     Max |d(i,j)-d*(j,i)| =  0.017658
     Max |d(i,j)-d*(j,i)|/|d(i,j)|: 203.4087%
     Max |d(i,j)-d*(j,i)| =  0.017658
     Max |d(i,j)-d*(j,i)|/|d(i,j)|: 985.3260%
     Max |d(i,j)-d*(j,i)| =  0.017658
     Max |d(i,j)-d*(j,i)|/|d(i,j)|: 522.6000%
     Max |d(i,j)-d*(j,i)| =  0.017658
     Max |d(i,j)-d*(j,i)|/|d(i,j)|: 309.4416%
     Max |d(i,j)-d*(j,i)| =  0.017658
     Max |d(i,j)-d*(j,i)|/|d(i,j)|: 415.3909%
     Max |d(i,j)-d*(j,i)| =  0.017658
     Max |d(i,j)-d*(j,i)|/|d(i,j)|: ********%
     Max |d(i,j)-d*(j,i)| =  0.017658
     Max |d(i,j)-d*(j,i)|/|d(i,j)|: 305.8522%
     Max |d(i,j)-d*(j,i)| =  0.017658
     Max |d(i,j)-d*(j,i)|/|d(i,j)|: 255.2130%
     Max |d(i,j)-d*(j,i)| =  0.017658
     Max |d(i,j)-d*(j,i)|/|d(i,j)|: 123.9237%
     Max |d(i,j)-d*(j,i)| =  0.017658
     Max |d(i,j)-d*(j,i)|/|d(i,j)|:  65.2574%
     Max |d(i,j)-d*(j,i)| =  0.017658
     Max |d(i,j)-d*(j,i)|/|d(i,j)|:  52.2118%
     Max |d(i,j)-d*(j,i)| =  0.017658
     Max |d(i,j)-d*(j,i)|/|d(i,j)|:  51.2066%
     Max |d(i,j)-d*(j,i)| =  0.017658
     Max |d(i,j)-d*(j,i)|/|d(i,j)|:  57.9178%
     Max |d(i,j)-d*(j,i)| =  0.017658
     Max |d(i,j)-d*(j,i)|/|d(i,j)|:  75.2028%
     Max |d(i,j)-d*(j,i)| =  0.017658
     Max |d(i,j)-d*(j,i)|/|d(i,j)|: 119.4139%
     Max |d(i,j)-d*(j,i)| =  0.017658
     Max |d(i,j)-d*(j,i)|/|d(i,j)|: 329.6086%
     Max |d(i,j)-d*(j,i)| =  0.017658
     Max |d(i,j)-d*(j,i)|/|d(i,j)|: 427.8124%
     Max |d(i,j)-d*(j,i)| =  0.017658
     Max |d(i,j)-d*(j,i)|/|d(i,j)|: 386.8599%
     Max |d(i,j)-d*(j,i)| =  0.017658
     Max |d(i,j)-d*(j,i)|/|d(i,j)|: 547.1154%
     Max |d(i,j)-d*(j,i)| =  0.017658
     Max |d(i,j)-d*(j,i)|/|d(i,j)|: 198.4369%
     Max |d(i,j)-d*(j,i)| =  0.017658
     Max |d(i,j)-d*(j,i)|/|d(i,j)|: 159.6195%
     Max |d(i,j)-d*(j,i)| =  0.017658
     Max |d(i,j)-d*(j,i)|/|d(i,j)|: 219.3880%
     Max |d(i,j)-d*(j,i)| =  0.017658
     Max |d(i,j)-d*(j,i)|/|d(i,j)|: ********%
     Max |d(i,j)-d*(j,i)| =  0.017658
     Max |d(i,j)-d*(j,i)|/|d(i,j)|: 967.8025%
     Max |d(i,j)-d*(j,i)| =  0.017658
     Max |d(i,j)-d*(j,i)|/|d(i,j)|: 238.0205%
     Max |d(i,j)-d*(j,i)| =  0.017658
     Max |d(i,j)-d*(j,i)|/|d(i,j)|:  69.3922%
     Max |d(i,j)-d*(j,i)| =  0.017658
     Max |d(i,j)-d*(j,i)|/|d(i,j)|:  49.6822%
     Max |d(i,j)-d*(j,i)| =  0.017658
     Max |d(i,j)-d*(j,i)|/|d(i,j)|:  46.9474%
     Max |d(i,j)-d*(j,i)| =  0.017658
     Max |d(i,j)-d*(j,i)|/|d(i,j)|:  51.6902%
     Max |d(i,j)-d*(j,i)| =  0.017658
     Max |d(i,j)-d*(j,i)|/|d(i,j)|:  64.1047%
     Max |d(i,j)-d*(j,i)| =  0.017658
     Max |d(i,j)-d*(j,i)|/|d(i,j)|:  91.7237%
     Max |d(i,j)-d*(j,i)| =  0.017658
     Max |d(i,j)-d*(j,i)|/|d(i,j)|: 175.0544%
     Max |d(i,j)-d*(j,i)| =  0.017658
     Max |d(i,j)-d*(j,i)|/|d(i,j)|: ********%
     Max |d(i,j)-d*(j,i)| =  0.017658
     Max |d(i,j)-d*(j,i)|/|d(i,j)|: 208.9231%
     Max |d(i,j)-d*(j,i)| =  0.017658
     Max |d(i,j)-d*(j,i)|/|d(i,j)|: ********%
     Max |d(i,j)-d*(j,i)| =  0.017658
     Max |d(i,j)-d*(j,i)|/|d(i,j)|: 188.6235%
     Max |d(i,j)-d*(j,i)| =  0.017658
     Max |d(i,j)-d*(j,i)|/|d(i,j)|: 114.6858%
     Max |d(i,j)-d*(j,i)| =  0.017658
     Max |d(i,j)-d*(j,i)|/|d(i,j)|: 105.2881%
     Max |d(i,j)-d*(j,i)| =  0.017658
     Max |d(i,j)-d*(j,i)|/|d(i,j)|: 167.0689%
     Max |d(i,j)-d*(j,i)| =  0.017658
     Max |d(i,j)-d*(j,i)|/|d(i,j)|: 385.1884%
     Max |d(i,j)-d*(j,i)| =  0.017658
     Max |d(i,j)-d*(j,i)|/|d(i,j)|: 690.3529%
     Max |d(i,j)-d*(j,i)| =  0.017658
     Max |d(i,j)-d*(j,i)|/|d(i,j)|:  79.2530%
     Max |d(i,j)-d*(j,i)| =  0.017658
     Max |d(i,j)-d*(j,i)|/|d(i,j)|:  48.6490%
     Max |d(i,j)-d*(j,i)| =  0.017658
     Max |d(i,j)-d*(j,i)|/|d(i,j)|:  45.1107%
     Max |d(i,j)-d*(j,i)| =  0.017658
     Max |d(i,j)-d*(j,i)|/|d(i,j)|:  49.6184%
     Max |d(i,j)-d*(j,i)| =  0.017658
     Max |d(i,j)-d*(j,i)|/|d(i,j)|:  60.5192%
     Max |d(i,j)-d*(j,i)| =  0.017658
     Max |d(i,j)-d*(j,i)|/|d(i,j)|:  81.8902%
     Max |d(i,j)-d*(j,i)| =  0.017658
     Max |d(i,j)-d*(j,i)|/|d(i,j)|: 132.4407%
     Max |d(i,j)-d*(j,i)| =  0.017658
     Max |d(i,j)-d*(j,i)|/|d(i,j)|: 381.0507%
     Max |d(i,j)-d*(j,i)| =  0.017658
     Max |d(i,j)-d*(j,i)|/|d(i,j)|: 391.3879%
     Max |d(i,j)-d*(j,i)| =  0.017658
     Max |d(i,j)-d*(j,i)|/|d(i,j)|: 487.2208%
     Max |d(i,j)-d*(j,i)| =  0.017658
     Max |d(i,j)-d*(j,i)|/|d(i,j)|: 294.9743%
     Max |d(i,j)-d*(j,i)| =  0.017658
     Max |d(i,j)-d*(j,i)|/|d(i,j)|: 118.6496%
     Max |d(i,j)-d*(j,i)| =  0.017658
     Max |d(i,j)-d*(j,i)|/|d(i,j)|:  83.4941%
     Max |d(i,j)-d*(j,i)| =  0.017658
     Max |d(i,j)-d*(j,i)|/|d(i,j)|:  84.4407%
     Max |d(i,j)-d*(j,i)| =  0.017658
     Max |d(i,j)-d*(j,i)|/|d(i,j)|: 197.6808%
     Max |d(i,j)-d*(j,i)| =  0.017658
     Max |d(i,j)-d*(j,i)|/|d(i,j)|: ********%
     Max |d(i,j)-d*(j,i)| =  0.017658
     Max |d(i,j)-d*(j,i)|/|d(i,j)|: 111.1446%
     Max |d(i,j)-d*(j,i)| =  0.017658
     Max |d(i,j)-d*(j,i)|/|d(i,j)|:  51.4455%
     Max |d(i,j)-d*(j,i)| =  0.017658
     Max |d(i,j)-d*(j,i)|/|d(i,j)|:  47.7923%
     Max |d(i,j)-d*(j,i)| =  0.017658
     Max |d(i,j)-d*(j,i)|/|d(i,j)|:  53.8343%
     Max |d(i,j)-d*(j,i)| =  0.017658
     Max |d(i,j)-d*(j,i)|/|d(i,j)|:  65.7996%
     Max |d(i,j)-d*(j,i)| =  0.017658
     Max |d(i,j)-d*(j,i)|/|d(i,j)|:  85.9533%
     Max |d(i,j)-d*(j,i)| =  0.017658
     Max |d(i,j)-d*(j,i)|/|d(i,j)|: 125.0749%
     Max |d(i,j)-d*(j,i)| =  0.017658
     Max |d(i,j)-d*(j,i)|/|d(i,j)|: 238.9636%
     Max |d(i,j)-d*(j,i)| =  0.017658
     Max |d(i,j)-d*(j,i)|/|d(i,j)|: ********%
     Max |d(i,j)-d*(j,i)| =  0.017658
     Max |d(i,j)-d*(j,i)|/|d(i,j)|: 226.8930%
     Max |d(i,j)-d*(j,i)| =  0.017658
     Max |d(i,j)-d*(j,i)|/|d(i,j)|: ********%
     Max |d(i,j)-d*(j,i)| =  0.017658
     Max |d(i,j)-d*(j,i)|/|d(i,j)|: 221.1147%
     Max |d(i,j)-d*(j,i)| =  0.017658
     Max |d(i,j)-d*(j,i)|/|d(i,j)|: 103.8643%
     Max |d(i,j)-d*(j,i)| =  0.017658
     Max |d(i,j)-d*(j,i)|/|d(i,j)|:  75.7193%
     Max |d(i,j)-d*(j,i)| =  0.017658
     Max |d(i,j)-d*(j,i)|/|d(i,j)|:  87.1798%
     Max |d(i,j)-d*(j,i)| =  0.017658
     Max |d(i,j)-d*(j,i)|/|d(i,j)|: 228.7674%
     Max |d(i,j)-d*(j,i)| =  0.017658
     Max |d(i,j)-d*(j,i)|/|d(i,j)|: 225.6912%
     Max |d(i,j)-d*(j,i)| =  0.017658
     Max |d(i,j)-d*(j,i)|/|d(i,j)|: 145.4730%
     Max |d(i,j)-d*(j,i)| =  0.017658
     Max |d(i,j)-d*(j,i)|/|d(i,j)|:  77.7008%
     Max |d(i,j)-d*(j,i)| =  0.017658
     Max |d(i,j)-d*(j,i)|/|d(i,j)|:  71.8027%
     Max |d(i,j)-d*(j,i)| =  0.017658
     Max |d(i,j)-d*(j,i)|/|d(i,j)|:  78.5985%
     Max |d(i,j)-d*(j,i)| =  0.017658
     Max |d(i,j)-d*(j,i)|/|d(i,j)|:  93.3077%
     Max |d(i,j)-d*(j,i)| =  0.017658
     Max |d(i,j)-d*(j,i)|/|d(i,j)|: 119.4884%
     Max |d(i,j)-d*(j,i)| =  0.017658
     Max |d(i,j)-d*(j,i)|/|d(i,j)|: 174.4720%
     Max |d(i,j)-d*(j,i)| =  0.017658
     Max |d(i,j)-d*(j,i)|/|d(i,j)|: 363.7758%
     Max |d(i,j)-d*(j,i)| =  0.017658
     Max |d(i,j)-d*(j,i)|/|d(i,j)|: ********%
     Max |d(i,j)-d*(j,i)| =  0.017658
     Max |d(i,j)-d*(j,i)|/|d(i,j)|: 227.6818%
     Max |d(i,j)-d*(j,i)| =  0.017658
     Max |d(i,j)-d*(j,i)|/|d(i,j)|: 647.9496%
     Max |d(i,j)-d*(j,i)| =  0.017658
     Max |d(i,j)-d*(j,i)|/|d(i,j)|: 387.7239%
     Max |d(i,j)-d*(j,i)| =  0.017658
     Max |d(i,j)-d*(j,i)|/|d(i,j)|: 162.4965%
     Max |d(i,j)-d*(j,i)| =  0.017658
     Max |d(i,j)-d*(j,i)|/|d(i,j)|: 129.8940%
     Max |d(i,j)-d*(j,i)| =  0.017658
     Max |d(i,j)-d*(j,i)|/|d(i,j)|: ********%
     Max |d(i,j)-d*(j,i)| =  0.017658
     Max |d(i,j)-d*(j,i)|/|d(i,j)|: 310.7424%
     Max |d(i,j)-d*(j,i)| =  0.017658
     Max |d(i,j)-d*(j,i)|/|d(i,j)|: ********%
     Max |d(i,j)-d*(j,i)| =  0.017658
     Max |d(i,j)-d*(j,i)|/|d(i,j)|: 212.5951%
     Max |d(i,j)-d*(j,i)| =  0.017658
     Max |d(i,j)-d*(j,i)|/|d(i,j)|: 166.2089%
     Max |d(i,j)-d*(j,i)| =  0.017658
     Max |d(i,j)-d*(j,i)|/|d(i,j)|: 167.0316%
     Max |d(i,j)-d*(j,i)| =  0.017658
     Max |d(i,j)-d*(j,i)|/|d(i,j)|: 179.0182%
     Max |d(i,j)-d*(j,i)| =  0.017658
     Max |d(i,j)-d*(j,i)|/|d(i,j)|: 199.7885%
     Max |d(i,j)-d*(j,i)| =  0.017658
     Max |d(i,j)-d*(j,i)|/|d(i,j)|: 239.2960%
     Max |d(i,j)-d*(j,i)| =  0.017658
     Max |d(i,j)-d*(j,i)|/|d(i,j)|: 332.8270%
     Max |d(i,j)-d*(j,i)| =  0.017658
     Max |d(i,j)-d*(j,i)|/|d(i,j)|: 704.5908%
     Max |d(i,j)-d*(j,i)| =  0.017658
     Max |d(i,j)-d*(j,i)|/|d(i,j)|: ********%
     Max |d(i,j)-d*(j,i)| =  0.017658
     Max |d(i,j)-d*(j,i)|/|d(i,j)|: 340.6600%
     Max |d(i,j)-d*(j,i)| =  0.017658
     Max |d(i,j)-d*(j,i)|/|d(i,j)|: 223.6818%
     Max |d(i,j)-d*(j,i)| =  0.017658
     Max |d(i,j)-d*(j,i)|/|d(i,j)|: 538.3504%
     Max |d(i,j)-d*(j,i)| =  0.017658
     Max |d(i,j)-d*(j,i)|/|d(i,j)|: ********%
     Max |d(i,j)-d*(j,i)| =  0.017658
     Max |d(i,j)-d*(j,i)|/|d(i,j)|: ********%
     Max |d(i,j)-d*(j,i)| =  0.017658
     Max |d(i,j)-d*(j,i)|/|d(i,j)|: 680.2943%
     Max |d(i,j)-d*(j,i)| =  0.017658
     Max |d(i,j)-d*(j,i)|/|d(i,j)|: 235.5663%
     Max |d(i,j)-d*(j,i)| =  0.017658
     Max |d(i,j)-d*(j,i)|/|d(i,j)|: 245.1002%
     Max |d(i,j)-d*(j,i)| =  0.017658
     Max |d(i,j)-d*(j,i)|/|d(i,j)|: 218.8170%
     Max |d(i,j)-d*(j,i)| =  0.017658
     Max |d(i,j)-d*(j,i)|/|d(i,j)|: 257.7569%
     Max |d(i,j)-d*(j,i)| =  0.017658
     Max |d(i,j)-d*(j,i)|/|d(i,j)|: 476.0745%
     Max |d(i,j)-d*(j,i)| =  0.017658
     Max |d(i,j)-d*(j,i)|/|d(i,j)|: ********%
     Max |d(i,j)-d*(j,i)| =  0.017658
     Max |d(i,j)-d*(j,i)|/|d(i,j)|: ********%
     Max |d(i,j)-d*(j,i)| =  0.017658
     Max |d(i,j)-d*(j,i)|/|d(i,j)|: 571.3510%
     Max |d(i,j)-d*(j,i)| =  0.017658
     Max |d(i,j)-d*(j,i)|/|d(i,j)|: 454.4923%
     Max |d(i,j)-d*(j,i)| =  0.017658
     Max |d(i,j)-d*(j,i)|/|d(i,j)|: 445.1791%
     Max |d(i,j)-d*(j,i)| =  0.017658
     Max |d(i,j)-d*(j,i)|/|d(i,j)|: 502.5762%
     Max |d(i,j)-d*(j,i)| =  0.017658
     Max |d(i,j)-d*(j,i)|/|d(i,j)|: 636.6168%
     Max |d(i,j)-d*(j,i)| =  0.017658
     Max |d(i,j)-d*(j,i)|/|d(i,j)|: 885.5631%
     Max |d(i,j)-d*(j,i)| =  0.017658
     Max |d(i,j)-d*(j,i)|/|d(i,j)|: ********%
     Max |d(i,j)-d*(j,i)| =  0.017658
     Max |d(i,j)-d*(j,i)|/|d(i,j)|: 100.7367%
     Max |d(i,j)-d*(j,i)| =  0.017658
     Max |d(i,j)-d*(j,i)|/|d(i,j)|: 145.5725%
     Max |d(i,j)-d*(j,i)| =  0.017658
     Max |d(i,j)-d*(j,i)|/|d(i,j)|: 611.0993%
     Max |d(i,j)-d*(j,i)| =  0.017658
     Max |d(i,j)-d*(j,i)|/|d(i,j)|: 913.1010%
     Max |d(i,j)-d*(j,i)| =  0.017658
     Max |d(i,j)-d*(j,i)|/|d(i,j)|: 207.1185%
     Max |d(i,j)-d*(j,i)| =  0.017658
     Max |d(i,j)-d*(j,i)|/|d(i,j)|: 275.6314%
     Max |d(i,j)-d*(j,i)| =  0.017658
     Max |d(i,j)-d*(j,i)|/|d(i,j)|: ********%
     Max |d(i,j)-d*(j,i)| =  0.017658
     Max |d(i,j)-d*(j,i)|/|d(i,j)|: 330.4561%
     Max |d(i,j)-d*(j,i)| =  0.017658
     Max |d(i,j)-d*(j,i)|/|d(i,j)|: 270.6724%
     Max |d(i,j)-d*(j,i)| =  0.017658
     Max |d(i,j)-d*(j,i)|/|d(i,j)|: ********%
     Max |d(i,j)-d*(j,i)| =  0.017658
     Max |d(i,j)-d*(j,i)|/|d(i,j)|: 652.0672%
     Max |d(i,j)-d*(j,i)| =  0.017658
     Max |d(i,j)-d*(j,i)|/|d(i,j)|: 284.7688%
     Max |d(i,j)-d*(j,i)| =  0.017658
     Max |d(i,j)-d*(j,i)|/|d(i,j)|: 191.9469%
     Max |d(i,j)-d*(j,i)| =  0.017658
     Max |d(i,j)-d*(j,i)|/|d(i,j)|: 147.6004%
     Max |d(i,j)-d*(j,i)| =  0.017658
     Max |d(i,j)-d*(j,i)|/|d(i,j)|: 120.4516%
     Max |d(i,j)-d*(j,i)| =  0.017658
     Max |d(i,j)-d*(j,i)|/|d(i,j)|: 103.7140%
     Max |d(i,j)-d*(j,i)| =  0.017658
     Max |d(i,j)-d*(j,i)|/|d(i,j)|:  65.9277%
     Max |d(i,j)-d*(j,i)| =  0.017658
     Max |d(i,j)-d*(j,i)|/|d(i,j)|:  81.9044%
     Max |d(i,j)-d*(j,i)| =  0.017658
     Max |d(i,j)-d*(j,i)|/|d(i,j)|: 283.3616%
     Max |d(i,j)-d*(j,i)| =  0.017658
     Max |d(i,j)-d*(j,i)|/|d(i,j)|: 637.9977%
     Max |d(i,j)-d*(j,i)| =  0.017658
     Max |d(i,j)-d*(j,i)|/|d(i,j)|: 147.2373%
     Max |d(i,j)-d*(j,i)| =  0.017658
     Max |d(i,j)-d*(j,i)|/|d(i,j)|: 113.6037%
     Max |d(i,j)-d*(j,i)| =  0.017658
     Max |d(i,j)-d*(j,i)|/|d(i,j)|: 150.9105%
     Max |d(i,j)-d*(j,i)| =  0.017658
     Max |d(i,j)-d*(j,i)|/|d(i,j)|: 369.5049%
     Max |d(i,j)-d*(j,i)| =  0.017658
     Max |d(i,j)-d*(j,i)|/|d(i,j)|: 612.6775%
     Max |d(i,j)-d*(j,i)| =  0.017658
     Max |d(i,j)-d*(j,i)|/|d(i,j)|: 239.4477%
     Max |d(i,j)-d*(j,i)| =  0.017658
     Max |d(i,j)-d*(j,i)|/|d(i,j)|: ********%
     Max |d(i,j)-d*(j,i)| =  0.017658
     Max |d(i,j)-d*(j,i)|/|d(i,j)|: 314.7170%
     Max |d(i,j)-d*(j,i)| =  0.017658
     Max |d(i,j)-d*(j,i)|/|d(i,j)|: 156.3357%
     Max |d(i,j)-d*(j,i)| =  0.017658
     Max |d(i,j)-d*(j,i)|/|d(i,j)|: 106.2479%
     Max |d(i,j)-d*(j,i)| =  0.017658
     Max |d(i,j)-d*(j,i)|/|d(i,j)|:  81.9211%
     Max |d(i,j)-d*(j,i)| =  0.017658
     Max |d(i,j)-d*(j,i)|/|d(i,j)|:  69.1400%
     Max |d(i,j)-d*(j,i)| =  0.017658
     Max |d(i,j)-d*(j,i)|/|d(i,j)|:  59.0709%
     Max |d(i,j)-d*(j,i)| =  0.017658
     Max |d(i,j)-d*(j,i)|/|d(i,j)|:  68.6647%
     Max |d(i,j)-d*(j,i)| =  0.017658
     Max |d(i,j)-d*(j,i)|/|d(i,j)|: 132.5804%
     Max |d(i,j)-d*(j,i)| =  0.017658
     Max |d(i,j)-d*(j,i)|/|d(i,j)|: 325.6560%
     Max |d(i,j)-d*(j,i)| =  0.017658
     Max |d(i,j)-d*(j,i)|/|d(i,j)|: 344.0745%
     Max |d(i,j)-d*(j,i)| =  0.017658
     Max |d(i,j)-d*(j,i)|/|d(i,j)|: 122.5834%
     Max |d(i,j)-d*(j,i)| =  0.017658
     Max |d(i,j)-d*(j,i)|/|d(i,j)|: 116.0892%
     Max |d(i,j)-d*(j,i)| =  0.017658
     Max |d(i,j)-d*(j,i)|/|d(i,j)|: 166.4349%
     Max |d(i,j)-d*(j,i)| =  0.017658
     Max |d(i,j)-d*(j,i)|/|d(i,j)|: 512.8451%
     Max |d(i,j)-d*(j,i)| =  0.017658
     Max |d(i,j)-d*(j,i)|/|d(i,j)|: 384.2775%
     Max |d(i,j)-d*(j,i)| =  0.017658
     Max |d(i,j)-d*(j,i)|/|d(i,j)|: 355.0734%
     Max |d(i,j)-d*(j,i)| =  0.017658
     Max |d(i,j)-d*(j,i)|/|d(i,j)|: 621.6534%
     Max |d(i,j)-d*(j,i)| =  0.017658
     Max |d(i,j)-d*(j,i)|/|d(i,j)|: 171.8784%
     Max |d(i,j)-d*(j,i)| =  0.017658
     Max |d(i,j)-d*(j,i)|/|d(i,j)|: 102.3941%
     Max |d(i,j)-d*(j,i)| =  0.017658
     Max |d(i,j)-d*(j,i)|/|d(i,j)|:  75.1811%
     Max |d(i,j)-d*(j,i)| =  0.017658
     Max |d(i,j)-d*(j,i)|/|d(i,j)|:  62.5080%
     Max |d(i,j)-d*(j,i)| =  0.017658
     Max |d(i,j)-d*(j,i)|/|d(i,j)|:  59.4867%
     Max |d(i,j)-d*(j,i)| =  0.017658
     Max |d(i,j)-d*(j,i)|/|d(i,j)|:  65.3256%
     Max |d(i,j)-d*(j,i)| =  0.017658
     Max |d(i,j)-d*(j,i)|/|d(i,j)|:  98.3800%
     Max |d(i,j)-d*(j,i)| =  0.017658
     Max |d(i,j)-d*(j,i)|/|d(i,j)|: 537.8176%
     Max |d(i,j)-d*(j,i)| =  0.017658
     Max |d(i,j)-d*(j,i)|/|d(i,j)|: 352.3680%
     Max |d(i,j)-d*(j,i)| =  0.017658
     Max |d(i,j)-d*(j,i)|/|d(i,j)|: 258.6542%
     Max |d(i,j)-d*(j,i)| =  0.017658
     Max |d(i,j)-d*(j,i)|/|d(i,j)|: 147.1380%
     Max |d(i,j)-d*(j,i)| =  0.017658
     Max |d(i,j)-d*(j,i)|/|d(i,j)|: 157.2461%
     Max |d(i,j)-d*(j,i)| =  0.017658
     Max |d(i,j)-d*(j,i)|/|d(i,j)|: 270.8289%
     Max |d(i,j)-d*(j,i)| =  0.017658
     Max |d(i,j)-d*(j,i)|/|d(i,j)|: ********%
     Max |d(i,j)-d*(j,i)| =  0.017658
     Max |d(i,j)-d*(j,i)|/|d(i,j)|: 214.6779%
     Max |d(i,j)-d*(j,i)| =  0.017658
     Max |d(i,j)-d*(j,i)|/|d(i,j)|: ********%
     Max |d(i,j)-d*(j,i)| =  0.017658
     Max |d(i,j)-d*(j,i)|/|d(i,j)|: 250.6562%
     Max |d(i,j)-d*(j,i)| =  0.017658
     Max |d(i,j)-d*(j,i)|/|d(i,j)|: 118.2001%
     Max |d(i,j)-d*(j,i)| =  0.017658
     Max |d(i,j)-d*(j,i)|/|d(i,j)|:  80.2490%
     Max |d(i,j)-d*(j,i)| =  0.017658
     Max |d(i,j)-d*(j,i)|/|d(i,j)|:  64.4809%
     Max |d(i,j)-d*(j,i)| =  0.017658
     Max |d(i,j)-d*(j,i)|/|d(i,j)|:  63.4594%
     Max |d(i,j)-d*(j,i)| =  0.017658
     Max |d(i,j)-d*(j,i)|/|d(i,j)|:  65.4267%
     Max |d(i,j)-d*(j,i)| =  0.017658
     Max |d(i,j)-d*(j,i)|/|d(i,j)|:  84.1141%
     Max |d(i,j)-d*(j,i)| =  0.017658
     Max |d(i,j)-d*(j,i)|/|d(i,j)|: 172.7398%
     Max |d(i,j)-d*(j,i)| =  0.017658
     Max |d(i,j)-d*(j,i)|/|d(i,j)|: 607.5851%
     Max |d(i,j)-d*(j,i)| =  0.017658
     Max |d(i,j)-d*(j,i)|/|d(i,j)|: 610.4325%
     Max |d(i,j)-d*(j,i)| =  0.017658
     Max |d(i,j)-d*(j,i)|/|d(i,j)|: 362.8043%
     Max |d(i,j)-d*(j,i)| =  0.017658
     Max |d(i,j)-d*(j,i)|/|d(i,j)|: 229.5684%
     Max |d(i,j)-d*(j,i)| =  0.017658
     Max |d(i,j)-d*(j,i)|/|d(i,j)|: 280.7165%
     Max |d(i,j)-d*(j,i)| =  0.017658
     Max |d(i,j)-d*(j,i)|/|d(i,j)|: 939.5980%
     Max |d(i,j)-d*(j,i)| =  0.017658
     Max |d(i,j)-d*(j,i)|/|d(i,j)|: 394.9773%
     Max |d(i,j)-d*(j,i)| =  0.017658
     Max |d(i,j)-d*(j,i)|/|d(i,j)|: 311.9414%
     Max |d(i,j)-d*(j,i)| =  0.017658
     Max |d(i,j)-d*(j,i)|/|d(i,j)|: 710.1596%
     Max |d(i,j)-d*(j,i)| =  0.017658
     Max |d(i,j)-d*(j,i)|/|d(i,j)|: 164.6713%
     Max |d(i,j)-d*(j,i)| =  0.017658
     Max |d(i,j)-d*(j,i)|/|d(i,j)|:  96.1113%
     Max |d(i,j)-d*(j,i)| =  0.017658
     Max |d(i,j)-d*(j,i)|/|d(i,j)|:  72.1048%
     Max |d(i,j)-d*(j,i)| =  0.017658
     Max |d(i,j)-d*(j,i)|/|d(i,j)|:  70.3566%
     Max |d(i,j)-d*(j,i)| =  0.017658
     Max |d(i,j)-d*(j,i)|/|d(i,j)|:  67.2090%
     Max |d(i,j)-d*(j,i)| =  0.017658
     Max |d(i,j)-d*(j,i)|/|d(i,j)|:  76.4302%
     Max |d(i,j)-d*(j,i)| =  0.017658
     Max |d(i,j)-d*(j,i)|/|d(i,j)|: 112.4247%
     Max |d(i,j)-d*(j,i)| =  0.017658
     Max |d(i,j)-d*(j,i)|/|d(i,j)|: 322.3390%
     Max |d(i,j)-d*(j,i)| =  0.017658
     Max |d(i,j)-d*(j,i)|/|d(i,j)|: 339.0577%
     Max |d(i,j)-d*(j,i)| =  0.017658
     Max |d(i,j)-d*(j,i)|/|d(i,j)|: 480.3270%
     Max |d(i,j)-d*(j,i)| =  0.017658
     Max |d(i,j)-d*(j,i)|/|d(i,j)|: ********%
     Max |d(i,j)-d*(j,i)| =  0.017658
     Max |d(i,j)-d*(j,i)|/|d(i,j)|: 494.8922%
     Max |d(i,j)-d*(j,i)| =  0.017658
     Max |d(i,j)-d*(j,i)|/|d(i,j)|: 807.6360%
     Max |d(i,j)-d*(j,i)| =  0.017658
     Max |d(i,j)-d*(j,i)|/|d(i,j)|: ********%
     Max |d(i,j)-d*(j,i)| =  0.017658
     Max |d(i,j)-d*(j,i)|/|d(i,j)|: 232.0412%
     Max |d(i,j)-d*(j,i)| =  0.017658
     Max |d(i,j)-d*(j,i)|/|d(i,j)|: 636.7129%
     Max |d(i,j)-d*(j,i)| =  0.017658
     Max |d(i,j)-d*(j,i)|/|d(i,j)|: 333.0671%
     Max |d(i,j)-d*(j,i)| =  0.017658
     Max |d(i,j)-d*(j,i)|/|d(i,j)|: 132.0202%
     Max |d(i,j)-d*(j,i)| =  0.017658
     Max |d(i,j)-d*(j,i)|/|d(i,j)|:  86.6011%
     Max |d(i,j)-d*(j,i)| =  0.017658
     Max |d(i,j)-d*(j,i)|/|d(i,j)|:  81.0682%
     Max |d(i,j)-d*(j,i)| =  0.017658
     Max |d(i,j)-d*(j,i)|/|d(i,j)|:  70.2327%
     Max |d(i,j)-d*(j,i)| =  0.017658
     Max |d(i,j)-d*(j,i)|/|d(i,j)|:  71.6824%
     Max |d(i,j)-d*(j,i)| =  0.017658
     Max |d(i,j)-d*(j,i)|/|d(i,j)|:  87.5968%
     Max |d(i,j)-d*(j,i)| =  0.017658
     Max |d(i,j)-d*(j,i)|/|d(i,j)|: 140.7350%
     Max |d(i,j)-d*(j,i)| =  0.017658
     Max |d(i,j)-d*(j,i)|/|d(i,j)|: 520.4635%
     Max |d(i,j)-d*(j,i)| =  0.017658
     Max |d(i,j)-d*(j,i)|/|d(i,j)|: 323.1057%
     Max |d(i,j)-d*(j,i)| =  0.017658
     Max |d(i,j)-d*(j,i)|/|d(i,j)|: 345.1215%
     Max |d(i,j)-d*(j,i)| =  0.017658
     Max |d(i,j)-d*(j,i)|/|d(i,j)|: ********%
     Max |d(i,j)-d*(j,i)| =  0.017658
     Max |d(i,j)-d*(j,i)|/|d(i,j)|: ********%
     Max |d(i,j)-d*(j,i)| =  0.017658
     Max |d(i,j)-d*(j,i)|/|d(i,j)|: ********%
     Max |d(i,j)-d*(j,i)| =  0.017658
     Max |d(i,j)-d*(j,i)|/|d(i,j)|: 496.6692%
     Max |d(i,j)-d*(j,i)| =  0.017658
     Max |d(i,j)-d*(j,i)|/|d(i,j)|: 210.8473%
     Max |d(i,j)-d*(j,i)| =  0.017658
     Max |d(i,j)-d*(j,i)|/|d(i,j)|: ********%
     Max |d(i,j)-d*(j,i)| =  0.017658
     Max |d(i,j)-d*(j,i)|/|d(i,j)|: 239.1990%
     Max |d(i,j)-d*(j,i)| =  0.017658
     Max |d(i,j)-d*(j,i)|/|d(i,j)|: 114.4948%
     Max |d(i,j)-d*(j,i)| =  0.017658
     Max |d(i,j)-d*(j,i)|/|d(i,j)|:  98.8053%
     Max |d(i,j)-d*(j,i)| =  0.017658
     Max |d(i,j)-d*(j,i)|/|d(i,j)|:  74.7283%
     Max |d(i,j)-d*(j,i)| =  0.017658
     Max |d(i,j)-d*(j,i)|/|d(i,j)|:  68.6066%
     Max |d(i,j)-d*(j,i)| =  0.017658
     Max |d(i,j)-d*(j,i)|/|d(i,j)|:  73.9757%
     Max |d(i,j)-d*(j,i)| =  0.017658
     Max |d(i,j)-d*(j,i)|/|d(i,j)|:  95.2388%
     Max |d(i,j)-d*(j,i)| =  0.017658
     Max |d(i,j)-d*(j,i)|/|d(i,j)|: 161.9001%
     Max |d(i,j)-d*(j,i)| =  0.017658
     Max |d(i,j)-d*(j,i)|/|d(i,j)|: 732.1666%
     Max |d(i,j)-d*(j,i)| =  0.017658
     Max |d(i,j)-d*(j,i)|/|d(i,j)|: 315.5603%
     Max |d(i,j)-d*(j,i)| =  0.017658
     Max |d(i,j)-d*(j,i)|/|d(i,j)|: 318.4874%
     Max |d(i,j)-d*(j,i)| =  0.017658
     Max |d(i,j)-d*(j,i)|/|d(i,j)|: ********%
     Max |d(i,j)-d*(j,i)| =  0.017658
     Max |d(i,j)-d*(j,i)|/|d(i,j)|: ********%
     Max |d(i,j)-d*(j,i)| =  0.017658
     Max |d(i,j)-d*(j,i)|/|d(i,j)|: ********%
     Max |d(i,j)-d*(j,i)| =  0.017658
     Max |d(i,j)-d*(j,i)|/|d(i,j)|: 496.4254%
     Max |d(i,j)-d*(j,i)| =  0.017658
     Max |d(i,j)-d*(j,i)|/|d(i,j)|: 225.4227%
     Max |d(i,j)-d*(j,i)| =  0.017658
     Max |d(i,j)-d*(j,i)|/|d(i,j)|: ********%
     Max |d(i,j)-d*(j,i)| =  0.017658
     Max |d(i,j)-d*(j,i)|/|d(i,j)|: 183.8555%
     Max |d(i,j)-d*(j,i)| =  0.017658
     Max |d(i,j)-d*(j,i)|/|d(i,j)|: 134.0845%
     Max |d(i,j)-d*(j,i)| =  0.017658
     Max |d(i,j)-d*(j,i)|/|d(i,j)|:  81.6606%
     Max |d(i,j)-d*(j,i)| =  0.017658
     Max |d(i,j)-d*(j,i)|/|d(i,j)|:  66.7892%
     Max |d(i,j)-d*(j,i)| =  0.017658
     Max |d(i,j)-d*(j,i)|/|d(i,j)|:  65.4239%
     Max |d(i,j)-d*(j,i)| =  0.017658
     Max |d(i,j)-d*(j,i)|/|d(i,j)|:  74.6934%
     Max |d(i,j)-d*(j,i)| =  0.017658
     Max |d(i,j)-d*(j,i)|/|d(i,j)|: 101.6203%
     Max |d(i,j)-d*(j,i)| =  0.017658
     Max |d(i,j)-d*(j,i)|/|d(i,j)|: 187.2898%
     Max |d(i,j)-d*(j,i)| =  0.017658
     Max |d(i,j)-d*(j,i)|/|d(i,j)|: ********%
     Max |d(i,j)-d*(j,i)| =  0.017658
     Max |d(i,j)-d*(j,i)|/|d(i,j)|: 253.7973%
     Max |d(i,j)-d*(j,i)| =  0.017658
     Max |d(i,j)-d*(j,i)|/|d(i,j)|: 437.9439%
     Max |d(i,j)-d*(j,i)| =  0.017658
     Max |d(i,j)-d*(j,i)|/|d(i,j)|: ********%
     Max |d(i,j)-d*(j,i)| =  0.017658
     Max |d(i,j)-d*(j,i)|/|d(i,j)|: 602.4234%
     Max |d(i,j)-d*(j,i)| =  0.017658
     Max |d(i,j)-d*(j,i)|/|d(i,j)|: 878.8523%
     Max |d(i,j)-d*(j,i)| =  0.017658
     Max |d(i,j)-d*(j,i)|/|d(i,j)|: 719.8581%
     Max |d(i,j)-d*(j,i)| =  0.017658
     Max |d(i,j)-d*(j,i)|/|d(i,j)|: 239.7008%
     Max |d(i,j)-d*(j,i)| =  0.017658
     Max |d(i,j)-d*(j,i)|/|d(i,j)|: 641.2267%
     Max |d(i,j)-d*(j,i)| =  0.017658
     Max |d(i,j)-d*(j,i)|/|d(i,j)|: 241.0618%
     Max |d(i,j)-d*(j,i)| =  0.017658
     Max |d(i,j)-d*(j,i)|/|d(i,j)|:  93.5344%
     Max |d(i,j)-d*(j,i)| =  0.017658
     Max |d(i,j)-d*(j,i)|/|d(i,j)|:  66.2880%
     Max |d(i,j)-d*(j,i)| =  0.017658
     Max |d(i,j)-d*(j,i)|/|d(i,j)|:  59.8161%
     Max |d(i,j)-d*(j,i)| =  0.017658
     Max |d(i,j)-d*(j,i)|/|d(i,j)|:  63.3480%
     Max |d(i,j)-d*(j,i)| =  0.017658
     Max |d(i,j)-d*(j,i)|/|d(i,j)|:  77.5343%
     Max |d(i,j)-d*(j,i)| =  0.017658
     Max |d(i,j)-d*(j,i)|/|d(i,j)|: 114.3941%
     Max |d(i,j)-d*(j,i)| =  0.017658
     Max |d(i,j)-d*(j,i)|/|d(i,j)|: 254.3087%
     Max |d(i,j)-d*(j,i)| =  0.017658
     Max |d(i,j)-d*(j,i)|/|d(i,j)|: 972.6113%
     Max |d(i,j)-d*(j,i)| =  0.017658
     Max |d(i,j)-d*(j,i)|/|d(i,j)|: 233.6834%
     Max |d(i,j)-d*(j,i)| =  0.017658
     Max |d(i,j)-d*(j,i)|/|d(i,j)|: ********%
     Max |d(i,j)-d*(j,i)| =  0.017658
     Max |d(i,j)-d*(j,i)|/|d(i,j)|: 377.9820%
     Max |d(i,j)-d*(j,i)| =  0.017658
     Max |d(i,j)-d*(j,i)|/|d(i,j)|: 258.8058%
     Max |d(i,j)-d*(j,i)| =  0.017658
     Max |d(i,j)-d*(j,i)|/|d(i,j)|: 356.3846%
     Max |d(i,j)-d*(j,i)| =  0.017658
     Max |d(i,j)-d*(j,i)|/|d(i,j)|: ********%
     Max |d(i,j)-d*(j,i)| =  0.017658
     Max |d(i,j)-d*(j,i)|/|d(i,j)|: 328.3158%
     Max |d(i,j)-d*(j,i)| =  0.017658
     Max |d(i,j)-d*(j,i)|/|d(i,j)|: ********%
     Max |d(i,j)-d*(j,i)| =  0.017658
     Max |d(i,j)-d*(j,i)|/|d(i,j)|: 117.8084%
     Max |d(i,j)-d*(j,i)| =  0.017658
     Max |d(i,j)-d*(j,i)|/|d(i,j)|:  67.6986%
     Max |d(i,j)-d*(j,i)| =  0.017658
     Max |d(i,j)-d*(j,i)|/|d(i,j)|:  56.4765%
     Max |d(i,j)-d*(j,i)| =  0.017658
     Max |d(i,j)-d*(j,i)|/|d(i,j)|:  56.9032%
     Max |d(i,j)-d*(j,i)| =  0.017658
     Max |d(i,j)-d*(j,i)|/|d(i,j)|:  65.7595%
     Max |d(i,j)-d*(j,i)| =  0.017658
     Max |d(i,j)-d*(j,i)|/|d(i,j)|:  87.6550%
     Max |d(i,j)-d*(j,i)| =  0.017658
     Max |d(i,j)-d*(j,i)|/|d(i,j)|: 147.6232%
     Max |d(i,j)-d*(j,i)| =  0.017658
     Max |d(i,j)-d*(j,i)|/|d(i,j)|: 580.4266%
     Max |d(i,j)-d*(j,i)| =  0.017658
     Max |d(i,j)-d*(j,i)|/|d(i,j)|: 292.4257%
     Max |d(i,j)-d*(j,i)| =  0.017658
     Max |d(i,j)-d*(j,i)|/|d(i,j)|: 598.6259%
     Max |d(i,j)-d*(j,i)| =  0.017658
     Max |d(i,j)-d*(j,i)|/|d(i,j)|: 386.9224%
     Max |d(i,j)-d*(j,i)| =  0.017658
     Max |d(i,j)-d*(j,i)|/|d(i,j)|: 179.6858%
     Max |d(i,j)-d*(j,i)| =  0.017658
     Max |d(i,j)-d*(j,i)|/|d(i,j)|: 156.0612%
     Max |d(i,j)-d*(j,i)| =  0.017658
     Max |d(i,j)-d*(j,i)|/|d(i,j)|: 240.0760%
     Max |d(i,j)-d*(j,i)| =  0.017658
     Max |d(i,j)-d*(j,i)|/|d(i,j)|: 625.9954%
     Max |d(i,j)-d*(j,i)| =  0.017658
     Max |d(i,j)-d*(j,i)|/|d(i,j)|: 212.1871%
     Max |d(i,j)-d*(j,i)| =  0.017658
     Max |d(i,j)-d*(j,i)|/|d(i,j)|: 188.5334%
     Max |d(i,j)-d*(j,i)| =  0.017658
     Max |d(i,j)-d*(j,i)|/|d(i,j)|:  72.8233%
     Max |d(i,j)-d*(j,i)| =  0.017658
     Max |d(i,j)-d*(j,i)|/|d(i,j)|:  55.7168%
     Max |d(i,j)-d*(j,i)| =  0.017658
     Max |d(i,j)-d*(j,i)|/|d(i,j)|:  54.3095%
     Max |d(i,j)-d*(j,i)| =  0.017658
     Max |d(i,j)-d*(j,i)|/|d(i,j)|:  60.8936%
     Max |d(i,j)-d*(j,i)| =  0.017658
     Max |d(i,j)-d*(j,i)|/|d(i,j)|:  76.8649%
     Max |d(i,j)-d*(j,i)| =  0.017658
     Max |d(i,j)-d*(j,i)|/|d(i,j)|: 113.8917%
     Max |d(i,j)-d*(j,i)| =  0.017658
     Max |d(i,j)-d*(j,i)|/|d(i,j)|: 246.7067%
     Max |d(i,j)-d*(j,i)| =  0.017658
     Max |d(i,j)-d*(j,i)|/|d(i,j)|: ********%
     Max |d(i,j)-d*(j,i)| =  0.017658
     Max |d(i,j)-d*(j,i)|/|d(i,j)|: 258.1949%
     Max |d(i,j)-d*(j,i)| =  0.017658
     Max |d(i,j)-d*(j,i)|/|d(i,j)|: 892.2474%
     Max |d(i,j)-d*(j,i)| =  0.017658
     Max |d(i,j)-d*(j,i)|/|d(i,j)|: 182.8124%
     Max |d(i,j)-d*(j,i)| =  0.017658
     Max |d(i,j)-d*(j,i)|/|d(i,j)|: 120.2576%
     Max |d(i,j)-d*(j,i)| =  0.017658
     Max |d(i,j)-d*(j,i)|/|d(i,j)|: 120.1591%
     Max |d(i,j)-d*(j,i)| =  0.017658
     Max |d(i,j)-d*(j,i)|/|d(i,j)|: 247.7308%
     Max |d(i,j)-d*(j,i)| =  0.017658
     Max |d(i,j)-d*(j,i)|/|d(i,j)|: ********%
     Max |d(i,j)-d*(j,i)| =  0.017658
     Max |d(i,j)-d*(j,i)|/|d(i,j)|: ********%
     Max |d(i,j)-d*(j,i)| =  0.017658
     Max |d(i,j)-d*(j,i)|/|d(i,j)|:  87.7557%
     Max |d(i,j)-d*(j,i)| =  0.017658
     Max |d(i,j)-d*(j,i)|/|d(i,j)|:  59.6328%
     Max |d(i,j)-d*(j,i)| =  0.017658
     Max |d(i,j)-d*(j,i)|/|d(i,j)|:  56.8125%
     Max |d(i,j)-d*(j,i)| =  0.017658
     Max |d(i,j)-d*(j,i)|/|d(i,j)|:  62.8663%
     Max |d(i,j)-d*(j,i)| =  0.017658
     Max |d(i,j)-d*(j,i)|/|d(i,j)|:  76.8680%
     Max |d(i,j)-d*(j,i)| =  0.017658
     Max |d(i,j)-d*(j,i)|/|d(i,j)|: 105.3408%
     Max |d(i,j)-d*(j,i)| =  0.017658
     Max |d(i,j)-d*(j,i)|/|d(i,j)|: 180.0135%
     Max |d(i,j)-d*(j,i)| =  0.017658
     Max |d(i,j)-d*(j,i)|/|d(i,j)|: 799.2174%
     Max |d(i,j)-d*(j,i)| =  0.017658
     Max |d(i,j)-d*(j,i)|/|d(i,j)|: 296.1709%
     Max |d(i,j)-d*(j,i)| =  0.017658
     Max |d(i,j)-d*(j,i)|/|d(i,j)|: 562.1287%
     Max |d(i,j)-d*(j,i)| =  0.017658
     Max |d(i,j)-d*(j,i)|/|d(i,j)|: 330.5102%
     Max |d(i,j)-d*(j,i)| =  0.017658
     Max |d(i,j)-d*(j,i)|/|d(i,j)|: 138.4381%
     Max |d(i,j)-d*(j,i)| =  0.017658
     Max |d(i,j)-d*(j,i)|/|d(i,j)|: 103.7177%
     Max |d(i,j)-d*(j,i)| =  0.017658
     Max |d(i,j)-d*(j,i)|/|d(i,j)|: 121.4209%
     Max |d(i,j)-d*(j,i)| =  0.017658
     Max |d(i,j)-d*(j,i)|/|d(i,j)|: 258.3827%
     Max |d(i,j)-d*(j,i)| =  0.017658
     Max |d(i,j)-d*(j,i)|/|d(i,j)|: 407.1657%
     Max |d(i,j)-d*(j,i)| =  0.017658
     Max |d(i,j)-d*(j,i)|/|d(i,j)|: ********%
     Max |d(i,j)-d*(j,i)| =  0.017658
     Max |d(i,j)-d*(j,i)|/|d(i,j)|: 124.7699%
     Max |d(i,j)-d*(j,i)| =  0.017658
     Max |d(i,j)-d*(j,i)|/|d(i,j)|:  85.7929%
     Max |d(i,j)-d*(j,i)| =  0.017658
     Max |d(i,j)-d*(j,i)|/|d(i,j)|:  80.3481%
     Max |d(i,j)-d*(j,i)| =  0.017658
     Max |d(i,j)-d*(j,i)|/|d(i,j)|:  86.9185%
     Max |d(i,j)-d*(j,i)| =  0.017658
     Max |d(i,j)-d*(j,i)|/|d(i,j)|: 104.5245%
     Max |d(i,j)-d*(j,i)| =  0.017658
     Max |d(i,j)-d*(j,i)|/|d(i,j)|: 143.6274%
     Max |d(i,j)-d*(j,i)| =  0.017658
     Max |d(i,j)-d*(j,i)|/|d(i,j)|: 262.0314%
     Max |d(i,j)-d*(j,i)| =  0.017658
     Max |d(i,j)-d*(j,i)|/|d(i,j)|: ********%
     Max |d(i,j)-d*(j,i)| =  0.017658
     Max |d(i,j)-d*(j,i)|/|d(i,j)|: 264.7950%
     Max |d(i,j)-d*(j,i)| =  0.017658
     Max |d(i,j)-d*(j,i)|/|d(i,j)|: 479.4917%
     Max |d(i,j)-d*(j,i)| =  0.017658
     Max |d(i,j)-d*(j,i)|/|d(i,j)|: 540.6485%
     Max |d(i,j)-d*(j,i)| =  0.017658
     Max |d(i,j)-d*(j,i)|/|d(i,j)|: 202.5065%
     Max |d(i,j)-d*(j,i)| =  0.017658
     Max |d(i,j)-d*(j,i)|/|d(i,j)|: 164.0787%
     Max |d(i,j)-d*(j,i)| =  0.017658
     Max |d(i,j)-d*(j,i)|/|d(i,j)|: 441.7489%
     Max |d(i,j)-d*(j,i)| =  0.017658
     Max |d(i,j)-d*(j,i)|/|d(i,j)|: ********%
     Max |d(i,j)-d*(j,i)| =  0.017658
     Max |d(i,j)-d*(j,i)|/|d(i,j)|: 320.4119%
     Max |d(i,j)-d*(j,i)| =  0.017658
     Max |d(i,j)-d*(j,i)|/|d(i,j)|: 349.9587%
     Max |d(i,j)-d*(j,i)| =  0.017658
     Max |d(i,j)-d*(j,i)|/|d(i,j)|: 156.8615%
     Max |d(i,j)-d*(j,i)| =  0.017658
     Max |d(i,j)-d*(j,i)|/|d(i,j)|: 131.2518%
     Max |d(i,j)-d*(j,i)| =  0.017658
     Max |d(i,j)-d*(j,i)|/|d(i,j)|: 131.9970%
     Max |d(i,j)-d*(j,i)| =  0.017658
     Max |d(i,j)-d*(j,i)|/|d(i,j)|: 146.1888%
     Max |d(i,j)-d*(j,i)| =  0.017658
     Max |d(i,j)-d*(j,i)|/|d(i,j)|: 178.3074%
     Max |d(i,j)-d*(j,i)| =  0.017658
     Max |d(i,j)-d*(j,i)|/|d(i,j)|: 256.5261%
     Max |d(i,j)-d*(j,i)| =  0.017658
     Max |d(i,j)-d*(j,i)|/|d(i,j)|: 588.2923%
     Max |d(i,j)-d*(j,i)| =  0.017658
     Max |d(i,j)-d*(j,i)|/|d(i,j)|: ********%
     Max |d(i,j)-d*(j,i)| =  0.017658
     Max |d(i,j)-d*(j,i)|/|d(i,j)|: 252.5197%
     Max |d(i,j)-d*(j,i)| =  0.017658
     Max |d(i,j)-d*(j,i)|/|d(i,j)|: 346.1461%
     Max |d(i,j)-d*(j,i)| =  0.017658
     Max |d(i,j)-d*(j,i)|/|d(i,j)|: ********%
     Max |d(i,j)-d*(j,i)| =  0.017658
     Max |d(i,j)-d*(j,i)|/|d(i,j)|: 467.9515%
     Max |d(i,j)-d*(j,i)| =  0.017658
     Max |d(i,j)-d*(j,i)|/|d(i,j)|: 254.5888%
     Max |d(i,j)-d*(j,i)| =  0.017658
     Max |d(i,j)-d*(j,i)|/|d(i,j)|: 259.1560%
     Max |d(i,j)-d*(j,i)| =  0.017658
     Max |d(i,j)-d*(j,i)|/|d(i,j)|: 202.2991%
     Max |d(i,j)-d*(j,i)| =  0.017658
[...]
     Max |d(i,j)-d*(j,i)|/|d(i,j)|: 474.4215%
     Max |d(i,j)-d*(j,i)| =  0.017658
     Max |d(i,j)-d*(j,i)|/|d(i,j)|: ********%
     Max |d(i,j)-d*(j,i)| =  0.017658
     Max |d(i,j)-d*(j,i)|/|d(i,j)|: ********%
     Max |d(i,j)-d*(j,i)| =  0.017658
     Max |d(i,j)-d*(j,i)|/|d(i,j)|: ********%
     Max |d(i,j)-d*(j,i)| =  0.017658
     Max |d(i,j)-d*(j,i)|/|d(i,j)|: 604.5686%
     Max |d(i,j)-d*(j,i)| =  0.017658
     Max |d(i,j)-d*(j,i)|/|d(i,j)|: 251.3963%
     Max |d(i,j)-d*(j,i)| =  0.017658
     Max |d(i,j)-d*(j,i)|/|d(i,j)|: 289.0313%
     Max |d(i,j)-d*(j,i)| =  0.017658
     Max |d(i,j)-d*(j,i)|/|d(i,j)|: ********%
     Max |d(i,j)-d*(j,i)| =  0.017658
     Max |d(i,j)-d*(j,i)|/|d(i,j)|: 749.9251%
     Max |d(i,j)-d*(j,i)| =  0.017658
     Max |d(i,j)-d*(j,i)|/|d(i,j)|: 726.7865%
     Max |d(i,j)-d*(j,i)| =  0.017658
     Max |d(i,j)-d*(j,i)|/|d(i,j)|: 298.3320%
     Max |d(i,j)-d*(j,i)| =  0.017658
     Max |d(i,j)-d*(j,i)|/|d(i,j)|: 218.6211%
     Max |d(i,j)-d*(j,i)| =  0.017658
     Max |d(i,j)-d*(j,i)|/|d(i,j)|: 210.6033%
     Max |d(i,j)-d*(j,i)| =  0.017658
     Max |d(i,j)-d*(j,i)|/|d(i,j)|: 269.1205%
     Max |d(i,j)-d*(j,i)| =  0.017658
     Max |d(i,j)-d*(j,i)|/|d(i,j)|: 643.8676%
     Max |d(i,j)-d*(j,i)| =  0.017658
     Max |d(i,j)-d*(j,i)|/|d(i,j)|: 723.7812%
     Max |d(i,j)-d*(j,i)| =  0.017658
     Max |d(i,j)-d*(j,i)|/|d(i,j)|: 221.6823%
     Max |d(i,j)-d*(j,i)| =  0.017658
     Max |d(i,j)-d*(j,i)|/|d(i,j)|: 358.1517%
     Max |d(i,j)-d*(j,i)| =  0.017658
     Max |d(i,j)-d*(j,i)|/|d(i,j)|: 991.4813%
     Max |d(i,j)-d*(j,i)| =  0.017658
     Max |d(i,j)-d*(j,i)|/|d(i,j)|: ********%
     Max |d(i,j)-d*(j,i)| =  0.017658
     Max |d(i,j)-d*(j,i)|/|d(i,j)|: ********%
     Max |d(i,j)-d*(j,i)| =  0.017658
     Max |d(i,j)-d*(j,i)|/|d(i,j)|: 468.8119%
     Max |d(i,j)-d*(j,i)| =  0.017658
     Max |d(i,j)-d*(j,i)|/|d(i,j)|: 243.6172%
     Max |d(i,j)-d*(j,i)| =  0.017658
     Max |d(i,j)-d*(j,i)|/|d(i,j)|: 283.0182%
     Max |d(i,j)-d*(j,i)| =  0.017658
     Max |d(i,j)-d*(j,i)|/|d(i,j)|: 978.7970%
     Max |d(i,j)-d*(j,i)| =  0.017658
     Max |d(i,j)-d*(j,i)|/|d(i,j)|: 880.6914%
     Max |d(i,j)-d*(j,i)| =  0.017658
     Max |d(i,j)-d*(j,i)|/|d(i,j)|: 649.2082%
     Max |d(i,j)-d*(j,i)| =  0.017658
     Max |d(i,j)-d*(j,i)|/|d(i,j)|: 268.2677%
     Max |d(i,j)-d*(j,i)| =  0.017658
     Max |d(i,j)-d*(j,i)|/|d(i,j)|: 198.7917%
     Max |d(i,j)-d*(j,i)| =  0.017658
     Max |d(i,j)-d*(j,i)|/|d(i,j)|: 193.1494%
     Max |d(i,j)-d*(j,i)| =  0.017658
     Max |d(i,j)-d*(j,i)|/|d(i,j)|: 243.6400%
     Max |d(i,j)-d*(j,i)| =  0.017658
     Max |d(i,j)-d*(j,i)|/|d(i,j)|: 501.6392%
     Max |d(i,j)-d*(j,i)| =  0.017658
     Max |d(i,j)-d*(j,i)|/|d(i,j)|: ********%
     Max |d(i,j)-d*(j,i)| =  0.017658
     Max |d(i,j)-d*(j,i)|/|d(i,j)|: 273.3903%
     Max |d(i,j)-d*(j,i)| =  0.017658
     Max |d(i,j)-d*(j,i)|/|d(i,j)|: 264.3372%
     Max |d(i,j)-d*(j,i)| =  0.017658
     Max |d(i,j)-d*(j,i)|/|d(i,j)|: 521.0716%
     Max |d(i,j)-d*(j,i)| =  0.017658
     Max |d(i,j)-d*(j,i)|/|d(i,j)|: ********%
     Max |d(i,j)-d*(j,i)| =  0.017658
     Max |d(i,j)-d*(j,i)|/|d(i,j)|: ********%
     Max |d(i,j)-d*(j,i)| =  0.017658
     Max |d(i,j)-d*(j,i)|/|d(i,j)|: 518.5918%
     Max |d(i,j)-d*(j,i)| =  0.017658
     Max |d(i,j)-d*(j,i)|/|d(i,j)|: 269.1002%
     Max |d(i,j)-d*(j,i)| =  0.017658
     Max |d(i,j)-d*(j,i)|/|d(i,j)|: 258.2759%
     Max |d(i,j)-d*(j,i)| =  0.017658
     Max |d(i,j)-d*(j,i)|/|d(i,j)|: 246.3480%
     Max |d(i,j)-d*(j,i)| =  0.017658
     Max |d(i,j)-d*(j,i)|/|d(i,j)|: ********%
     Max |d(i,j)-d*(j,i)| =  0.017658
     Max |d(i,j)-d*(j,i)|/|d(i,j)|: 462.3090%
     Max |d(i,j)-d*(j,i)| =  0.017658
     Max |d(i,j)-d*(j,i)|/|d(i,j)|: 218.8956%
     Max |d(i,j)-d*(j,i)| =  0.017658
     Max |d(i,j)-d*(j,i)|/|d(i,j)|: 168.6941%
     Max |d(i,j)-d*(j,i)| =  0.017658
     Max |d(i,j)-d*(j,i)|/|d(i,j)|: 165.6355%
     Max |d(i,j)-d*(j,i)| =  0.017658
     Max |d(i,j)-d*(j,i)|/|d(i,j)|: 203.1160%
     Max |d(i,j)-d*(j,i)| =  0.017658
     Max |d(i,j)-d*(j,i)|/|d(i,j)|: 355.1319%
     Max |d(i,j)-d*(j,i)| =  0.017658
     Max |d(i,j)-d*(j,i)|/|d(i,j)|: ********%
     Max |d(i,j)-d*(j,i)| =  0.017658
     Max |d(i,j)-d*(j,i)|/|d(i,j)|: 346.6228%
     Max |d(i,j)-d*(j,i)| =  0.017658
     Max |d(i,j)-d*(j,i)|/|d(i,j)|: 231.0323%
     Max |d(i,j)-d*(j,i)| =  0.017658
     Max |d(i,j)-d*(j,i)|/|d(i,j)|: 481.0765%
     Max |d(i,j)-d*(j,i)| =  0.017658
     Max |d(i,j)-d*(j,i)|/|d(i,j)|: ********%
     Max |d(i,j)-d*(j,i)| =  0.017658
     Max |d(i,j)-d*(j,i)|/|d(i,j)|: ********%
     Max |d(i,j)-d*(j,i)| =  0.017658
     Max |d(i,j)-d*(j,i)|/|d(i,j)|: 823.2410%
     Max |d(i,j)-d*(j,i)| =  0.017658
     Max |d(i,j)-d*(j,i)|/|d(i,j)|: 316.0030%
     Max |d(i,j)-d*(j,i)| =  0.017658
     Max |d(i,j)-d*(j,i)|/|d(i,j)|: 337.8705%
     Max |d(i,j)-d*(j,i)| =  0.017658
     Max |d(i,j)-d*(j,i)|/|d(i,j)|: 272.9191%
     Max |d(i,j)-d*(j,i)| =  0.017658
     Max |d(i,j)-d*(j,i)|/|d(i,j)|: ********%
     Max |d(i,j)-d*(j,i)| =  0.017658
     Max |d(i,j)-d*(j,i)|/|d(i,j)|: 293.4148%
     Max |d(i,j)-d*(j,i)| =  0.017658
     Max |d(i,j)-d*(j,i)|/|d(i,j)|: 169.3056%
     Max |d(i,j)-d*(j,i)| =  0.017658
     Max |d(i,j)-d*(j,i)|/|d(i,j)|: 139.3337%
     Max |d(i,j)-d*(j,i)| =  0.017658
     Max |d(i,j)-d*(j,i)|/|d(i,j)|: 140.6829%
     Max |d(i,j)-d*(j,i)| =  0.017658
     Max |d(i,j)-d*(j,i)|/|d(i,j)|: 172.5249%
     Max |d(i,j)-d*(j,i)| =  0.017658
     Max |d(i,j)-d*(j,i)|/|d(i,j)|: 287.3694%
     Max |d(i,j)-d*(j,i)| =  0.017658
     Max |d(i,j)-d*(j,i)|/|d(i,j)|: ********%
     Max |d(i,j)-d*(j,i)| =  0.017658
     Max |d(i,j)-d*(j,i)|/|d(i,j)|: 351.9524%
     Max |d(i,j)-d*(j,i)| =  0.017658
     Max |d(i,j)-d*(j,i)|/|d(i,j)|: 253.6918%
     Max |d(i,j)-d*(j,i)| =  0.017658
     Max |d(i,j)-d*(j,i)|/|d(i,j)|: 776.6881%
     Max |d(i,j)-d*(j,i)| =  0.017658
     Max |d(i,j)-d*(j,i)|/|d(i,j)|: ********%
     Max |d(i,j)-d*(j,i)| =  0.017658
     Max |d(i,j)-d*(j,i)|/|d(i,j)|: ********%
     Max |d(i,j)-d*(j,i)| =  0.017658
     Max |d(i,j)-d*(j,i)|/|d(i,j)|: ********%
     Max |d(i,j)-d*(j,i)| =  0.017658
     Max |d(i,j)-d*(j,i)|/|d(i,j)|: ********%
     Max |d(i,j)-d*(j,i)| =  0.017658
     Max |d(i,j)-d*(j,i)|/|d(i,j)|: 285.4123%
     Max |d(i,j)-d*(j,i)| =  0.017658
     Max |d(i,j)-d*(j,i)|/|d(i,j)|: 405.7422%
     Max |d(i,j)-d*(j,i)| =  0.017658
     Max |d(i,j)-d*(j,i)|/|d(i,j)|: 609.3687%
     Max |d(i,j)-d*(j,i)| =  0.017658
     Max |d(i,j)-d*(j,i)|/|d(i,j)|: 195.7555%
     Max |d(i,j)-d*(j,i)| =  0.017658
     Max |d(i,j)-d*(j,i)|/|d(i,j)|: 134.6241%
     Max |d(i,j)-d*(j,i)| =  0.017658
     Max |d(i,j)-d*(j,i)|/|d(i,j)|: 119.6355%
     Max |d(i,j)-d*(j,i)| =  0.017658
     Max |d(i,j)-d*(j,i)|/|d(i,j)|: 126.7231%
     Max |d(i,j)-d*(j,i)| =  0.017658
     Max |d(i,j)-d*(j,i)|/|d(i,j)|: 162.0793%
     Max |d(i,j)-d*(j,i)| =  0.017658
     Max |d(i,j)-d*(j,i)|/|d(i,j)|: 291.5298%
     Max |d(i,j)-d*(j,i)| =  0.017658
     Max |d(i,j)-d*(j,i)|/|d(i,j)|: ********%
     Max |d(i,j)-d*(j,i)| =  0.017658
     Max |d(i,j)-d*(j,i)|/|d(i,j)|: 264.7860%
     Max |d(i,j)-d*(j,i)| =  0.017658
     Max |d(i,j)-d*(j,i)|/|d(i,j)|: 375.6257%
     Max |d(i,j)-d*(j,i)| =  0.017658
     Max |d(i,j)-d*(j,i)|/|d(i,j)|: ********%
     Max |d(i,j)-d*(j,i)| =  0.017658
     Max |d(i,j)-d*(j,i)|/|d(i,j)|: 609.5258%
     Max |d(i,j)-d*(j,i)| =  0.017658
     Max |d(i,j)-d*(j,i)|/|d(i,j)|: 659.3622%
     Max |d(i,j)-d*(j,i)| =  0.017658
     Max |d(i,j)-d*(j,i)|/|d(i,j)|: 589.1992%
     Max |d(i,j)-d*(j,i)| =  0.017658
     Max |d(i,j)-d*(j,i)|/|d(i,j)|: ********%
     Max |d(i,j)-d*(j,i)| =  0.017658
     Max |d(i,j)-d*(j,i)|/|d(i,j)|: 203.5771%
     Max |d(i,j)-d*(j,i)| =  0.017658
     Max |d(i,j)-d*(j,i)|/|d(i,j)|: ********%
     Max |d(i,j)-d*(j,i)| =  0.017658
     Max |d(i,j)-d*(j,i)|/|d(i,j)|: 279.9438%
     Max |d(i,j)-d*(j,i)| =  0.017658
     Max |d(i,j)-d*(j,i)|/|d(i,j)|: 148.1847%
     Max |d(i,j)-d*(j,i)| =  0.017658
     Max |d(i,j)-d*(j,i)|/|d(i,j)|: 116.7904%
     Max |d(i,j)-d*(j,i)| =  0.017658
     Max |d(i,j)-d*(j,i)|/|d(i,j)|: 112.1265%
     Max |d(i,j)-d*(j,i)| =  0.017658
     Max |d(i,j)-d*(j,i)|/|d(i,j)|: 126.6966%
     Max |d(i,j)-d*(j,i)| =  0.017658
     Max |d(i,j)-d*(j,i)|/|d(i,j)|: 176.8840%
     Max |d(i,j)-d*(j,i)| =  0.017658
     Max |d(i,j)-d*(j,i)|/|d(i,j)|: 409.8666%
     Max |d(i,j)-d*(j,i)| =  0.017658
     Max |d(i,j)-d*(j,i)|/|d(i,j)|: 709.1380%
     Max |d(i,j)-d*(j,i)| =  0.017658
     Max |d(i,j)-d*(j,i)|/|d(i,j)|: 218.7095%
     Max |d(i,j)-d*(j,i)| =  0.017658
     Max |d(i,j)-d*(j,i)|/|d(i,j)|: ********%
     Max |d(i,j)-d*(j,i)| =  0.017658
     Max |d(i,j)-d*(j,i)|/|d(i,j)|: 632.8801%
     Max |d(i,j)-d*(j,i)| =  0.017658
     Max |d(i,j)-d*(j,i)|/|d(i,j)|: 389.7646%
     Max |d(i,j)-d*(j,i)| =  0.017658
     Max |d(i,j)-d*(j,i)|/|d(i,j)|: 390.8673%
     Max |d(i,j)-d*(j,i)| =  0.017658
     Max |d(i,j)-d*(j,i)|/|d(i,j)|: 611.8273%
     Max |d(i,j)-d*(j,i)| =  0.017658
     Max |d(i,j)-d*(j,i)|/|d(i,j)|: ********%
     Max |d(i,j)-d*(j,i)| =  0.017658
     Max |d(i,j)-d*(j,i)|/|d(i,j)|: 213.4694%
     Max |d(i,j)-d*(j,i)| =  0.017658
     Max |d(i,j)-d*(j,i)|/|d(i,j)|: 878.2050%
     Max |d(i,j)-d*(j,i)| =  0.017658
     Max |d(i,j)-d*(j,i)|/|d(i,j)|: 360.1959%
     Max |d(i,j)-d*(j,i)| =  0.017658
     Max |d(i,j)-d*(j,i)|/|d(i,j)|: 169.9902%
     Max |d(i,j)-d*(j,i)| =  0.017658
     Max |d(i,j)-d*(j,i)|/|d(i,j)|: 127.4170%
     Max |d(i,j)-d*(j,i)| =  0.017658
     Max |d(i,j)-d*(j,i)|/|d(i,j)|: 117.4045%
     Max |d(i,j)-d*(j,i)| =  0.017658
     Max |d(i,j)-d*(j,i)|/|d(i,j)|: 510.6035%
     Max |d(i,j)-d*(j,i)| =  0.017658
     Max |d(i,j)-d*(j,i)|/|d(i,j)|: 478.0644%
     Max |d(i,j)-d*(j,i)| =  0.017658
     Max |d(i,j)-d*(j,i)|/|d(i,j)|: ********%
     Max |d(i,j)-d*(j,i)| =  0.017658
     Max |d(i,j)-d*(j,i)|/|d(i,j)|: 383.6813%
     Max |d(i,j)-d*(j,i)| =  0.017658
     Max |d(i,j)-d*(j,i)|/|d(i,j)|: 285.6936%
     Max |d(i,j)-d*(j,i)| =  0.017658
     Max |d(i,j)-d*(j,i)|/|d(i,j)|: ********%
     Max |d(i,j)-d*(j,i)| =  0.017658
     Max |d(i,j)-d*(j,i)|/|d(i,j)|: 251.4186%
     Max |d(i,j)-d*(j,i)| =  0.017658
     Max |d(i,j)-d*(j,i)|/|d(i,j)|: 153.3124%
     Max |d(i,j)-d*(j,i)| =  0.017658
     Max |d(i,j)-d*(j,i)|/|d(i,j)|: 126.5274%
     Max |d(i,j)-d*(j,i)| =  0.017658
     Max |d(i,j)-d*(j,i)|/|d(i,j)|: 124.8281%
     Max |d(i,j)-d*(j,i)| =  0.017658
     Max |d(i,j)-d*(j,i)|/|d(i,j)|: 146.6442%
     Max |d(i,j)-d*(j,i)| =  0.017658
     Max |d(i,j)-d*(j,i)|/|d(i,j)|: 227.1291%
     Max |d(i,j)-d*(j,i)| =  0.017658
     Max |d(i,j)-d*(j,i)|/|d(i,j)|: ********%
     Max |d(i,j)-d*(j,i)| =  0.017658
     Max |d(i,j)-d*(j,i)|/|d(i,j)|: 335.2639%
     Max |d(i,j)-d*(j,i)| =  0.017658
     Max |d(i,j)-d*(j,i)|/|d(i,j)|: 323.7305%
     Max |d(i,j)-d*(j,i)| =  0.017658
     Max |d(i,j)-d*(j,i)|/|d(i,j)|: ********%
     Max |d(i,j)-d*(j,i)| =  0.017658
     Max |d(i,j)-d*(j,i)|/|d(i,j)|: ********%
     Max |d(i,j)-d*(j,i)| =  0.017658
     Max |d(i,j)-d*(j,i)|/|d(i,j)|: 739.4411%
     Max |d(i,j)-d*(j,i)| =  0.017658
     Max |d(i,j)-d*(j,i)|/|d(i,j)|: ********%
     Max |d(i,j)-d*(j,i)| =  0.017658
     Max |d(i,j)-d*(j,i)|/|d(i,j)|: 886.9236%
     Max |d(i,j)-d*(j,i)| =  0.017658
     Max |d(i,j)-d*(j,i)|/|d(i,j)|: 236.7127%
     Max |d(i,j)-d*(j,i)| =  0.017658
     Max |d(i,j)-d*(j,i)|/|d(i,j)|: 455.6682%
     Max |d(i,j)-d*(j,i)| =  0.017658
     Max |d(i,j)-d*(j,i)|/|d(i,j)|: 794.9845%
     Max |d(i,j)-d*(j,i)| =  0.017658
     Max |d(i,j)-d*(j,i)|/|d(i,j)|: 242.7759%
     Max |d(i,j)-d*(j,i)| =  0.017658
     Max |d(i,j)-d*(j,i)|/|d(i,j)|: 164.1490%
     Max |d(i,j)-d*(j,i)| =  0.017658
     Max |d(i,j)-d*(j,i)|/|d(i,j)|: 143.0203%
     Max |d(i,j)-d*(j,i)| =  0.017658
     Max |d(i,j)-d*(j,i)|/|d(i,j)|: 149.0550%
     Max |d(i,j)-d*(j,i)| =  0.017658
     Max |d(i,j)-d*(j,i)|/|d(i,j)|: 191.4768%
     Max |d(i,j)-d*(j,i)| =  0.017658
     Max |d(i,j)-d*(j,i)|/|d(i,j)|: 377.1785%
     Max |d(i,j)-d*(j,i)| =  0.017658
     Max |d(i,j)-d*(j,i)|/|d(i,j)|: ********%
     Max |d(i,j)-d*(j,i)| =  0.017658
     Max |d(i,j)-d*(j,i)|/|d(i,j)|: 228.8421%
     Max |d(i,j)-d*(j,i)| =  0.017658
     Max |d(i,j)-d*(j,i)|/|d(i,j)|: 443.5299%
     Max |d(i,j)-d*(j,i)| =  0.017658
     Max |d(i,j)-d*(j,i)|/|d(i,j)|: 419.5245%
     Max |d(i,j)-d*(j,i)| =  0.017658
     Max |d(i,j)-d*(j,i)|/|d(i,j)|: ********%
     Max |d(i,j)-d*(j,i)| =  0.017658
     Max |d(i,j)-d*(j,i)|/|d(i,j)|: ********%
     Max |d(i,j)-d*(j,i)| =  0.017658
     Max |d(i,j)-d*(j,i)|/|d(i,j)|: ********%
     Max |d(i,j)-d*(j,i)| =  0.017658
     Max |d(i,j)-d*(j,i)|/|d(i,j)|: 410.5175%
     Max |d(i,j)-d*(j,i)| =  0.017658
     Max |d(i,j)-d*(j,i)|/|d(i,j)|: 202.8594%
     Max |d(i,j)-d*(j,i)| =  0.017658
     Max |d(i,j)-d*(j,i)|/|d(i,j)|: 503.7081%
     Max |d(i,j)-d*(j,i)| =  0.017658
     Max |d(i,j)-d*(j,i)|/|d(i,j)|: ********%
     Max |d(i,j)-d*(j,i)| =  0.017658
     Max |d(i,j)-d*(j,i)|/|d(i,j)|: 311.7213%
     Max |d(i,j)-d*(j,i)| =  0.017658
     Max |d(i,j)-d*(j,i)|/|d(i,j)|: 206.3352%
     Max |d(i,j)-d*(j,i)| =  0.017658
     Max |d(i,j)-d*(j,i)|/|d(i,j)|: 180.6121%
     Max |d(i,j)-d*(j,i)| =  0.017658
     Max |d(i,j)-d*(j,i)|/|d(i,j)|: 194.5426%
     Max |d(i,j)-d*(j,i)| =  0.017658
     Max |d(i,j)-d*(j,i)|/|d(i,j)|: 273.9223%
     Max |d(i,j)-d*(j,i)| =  0.017658
     Max |d(i,j)-d*(j,i)|/|d(i,j)|: 810.6002%
     Max |d(i,j)-d*(j,i)| =  0.017658
     Max |d(i,j)-d*(j,i)|/|d(i,j)|: 564.6444%
     Max |d(i,j)-d*(j,i)| =  0.017658
     Max |d(i,j)-d*(j,i)|/|d(i,j)|: 204.3283%
     Max |d(i,j)-d*(j,i)| =  0.017658
     Max |d(i,j)-d*(j,i)|/|d(i,j)|: 221.2406%
     Max |d(i,j)-d*(j,i)| =  0.017658
     Max |d(i,j)-d*(j,i)|/|d(i,j)|: 304.0614%
     Max |d(i,j)-d*(j,i)| =  0.017658
     Max |d(i,j)-d*(j,i)|/|d(i,j)|: 561.0546%
     Max |d(i,j)-d*(j,i)| =  0.017658
     Max |d(i,j)-d*(j,i)|/|d(i,j)|: 850.6614%
     Max |d(i,j)-d*(j,i)| =  0.017658
     Max |d(i,j)-d*(j,i)|/|d(i,j)|: 650.1842%
     Max |d(i,j)-d*(j,i)| =  0.017658
     Max |d(i,j)-d*(j,i)|/|d(i,j)|: 358.6173%
     Max |d(i,j)-d*(j,i)| =  0.017658
     Max |d(i,j)-d*(j,i)|/|d(i,j)|: 211.5398%
     Max |d(i,j)-d*(j,i)| =  0.017658
     Max |d(i,j)-d*(j,i)|/|d(i,j)|: 342.8858%
     Max |d(i,j)-d*(j,i)| =  0.017658
     Max |d(i,j)-d*(j,i)|/|d(i,j)|: ********%
     Max |d(i,j)-d*(j,i)| =  0.017658
     Max |d(i,j)-d*(j,i)|/|d(i,j)|: 568.2492%
     Max |d(i,j)-d*(j,i)| =  0.017658
     Max |d(i,j)-d*(j,i)|/|d(i,j)|: 295.4075%
     Max |d(i,j)-d*(j,i)| =  0.017658
     Max |d(i,j)-d*(j,i)|/|d(i,j)|: 241.8433%
     Max |d(i,j)-d*(j,i)| =  0.017658
     Max |d(i,j)-d*(j,i)|/|d(i,j)|: 259.0890%
     Max |d(i,j)-d*(j,i)| =  0.017658
     Max |d(i,j)-d*(j,i)|/|d(i,j)|: 386.1860%
     Max |d(i,j)-d*(j,i)| =  0.017658
     Max |d(i,j)-d*(j,i)|/|d(i,j)|: ********%
     Max |d(i,j)-d*(j,i)| =  0.017658
     Max |d(i,j)-d*(j,i)|/|d(i,j)|: 506.7751%
     Max |d(i,j)-d*(j,i)| =  0.017658
     Max |d(i,j)-d*(j,i)|/|d(i,j)|: 687.1855%
     Max |d(i,j)-d*(j,i)| =  0.017658
     Max |d(i,j)-d*(j,i)|/|d(i,j)|: 278.6504%
     Max |d(i,j)-d*(j,i)| =  0.017658
     Max |d(i,j)-d*(j,i)|/|d(i,j)|: 225.6422%
     Max |d(i,j)-d*(j,i)| =  0.017658
     Max |d(i,j)-d*(j,i)|/|d(i,j)|: 354.6888%
     Max |d(i,j)-d*(j,i)| =  0.017658
     Max |d(i,j)-d*(j,i)|/|d(i,j)|: 566.1751%
     Max |d(i,j)-d*(j,i)| =  0.017658
     Max |d(i,j)-d*(j,i)|/|d(i,j)|: 687.9135%
     Max |d(i,j)-d*(j,i)| =  0.017658
     Max |d(i,j)-d*(j,i)|/|d(i,j)|: 496.3238%
     Max |d(i,j)-d*(j,i)| =  0.017658
     Max |d(i,j)-d*(j,i)|/|d(i,j)|: 289.1196%
     Max |d(i,j)-d*(j,i)| =  0.017658
     Max |d(i,j)-d*(j,i)|/|d(i,j)|: 227.7023%
     Max |d(i,j)-d*(j,i)| =  0.017658
     Max |d(i,j)-d*(j,i)|/|d(i,j)|: 527.4858%
     Max |d(i,j)-d*(j,i)| =  0.017658
     Max |d(i,j)-d*(j,i)|/|d(i,j)|: ********%
     Max |d(i,j)-d*(j,i)| =  0.017658
     Max |d(i,j)-d*(j,i)|/|d(i,j)|: 435.5250%
     Max |d(i,j)-d*(j,i)| =  0.017658
     Max |d(i,j)-d*(j,i)|/|d(i,j)|: 309.3209%
     Max |d(i,j)-d*(j,i)| =  0.017658
     Max |d(i,j)-d*(j,i)|/|d(i,j)|: 314.4595%
     Max |d(i,j)-d*(j,i)| =  0.017658
     Max |d(i,j)-d*(j,i)|/|d(i,j)|: 450.3605%
     Max |d(i,j)-d*(j,i)| =  0.017658
     Max |d(i,j)-d*(j,i)|/|d(i,j)|: ********%
     Max |d(i,j)-d*(j,i)| =  0.017658
     Max |d(i,j)-d*(j,i)|/|d(i,j)|: 918.7529%
     Max |d(i,j)-d*(j,i)| =  0.017658
     Max |d(i,j)-d*(j,i)|/|d(i,j)|: ********%
     Max |d(i,j)-d*(j,i)| =  0.017658
     Max |d(i,j)-d*(j,i)|/|d(i,j)|: 372.7485%
     Max |d(i,j)-d*(j,i)| =  0.017658
     Max |d(i,j)-d*(j,i)|/|d(i,j)|: 206.3122%
     Max |d(i,j)-d*(j,i)| =  0.017658
     Max |d(i,j)-d*(j,i)|/|d(i,j)|: 327.0107%
     Max |d(i,j)-d*(j,i)| =  0.017658
     Max |d(i,j)-d*(j,i)|/|d(i,j)|: 737.9727%
     Max |d(i,j)-d*(j,i)| =  0.017658
     Max |d(i,j)-d*(j,i)|/|d(i,j)|: ********%
     Max |d(i,j)-d*(j,i)| =  0.017658
     Max |d(i,j)-d*(j,i)|/|d(i,j)|: ********%
     Max |d(i,j)-d*(j,i)| =  0.017658
     Max |d(i,j)-d*(j,i)|/|d(i,j)|: 480.5264%
     Max |d(i,j)-d*(j,i)| =  0.017658
     Max |d(i,j)-d*(j,i)|/|d(i,j)|: 225.5052%
     Max |d(i,j)-d*(j,i)| =  0.017658
     Max |d(i,j)-d*(j,i)|/|d(i,j)|: 359.4521%
     Max |d(i,j)-d*(j,i)| =  0.017658
     Max |d(i,j)-d*(j,i)|/|d(i,j)|: ********%
     Max |d(i,j)-d*(j,i)| =  0.017658
     Max |d(i,j)-d*(j,i)|/|d(i,j)|: 545.2761%
     Max |d(i,j)-d*(j,i)| =  0.017658
     Max |d(i,j)-d*(j,i)|/|d(i,j)|: 342.4054%
     Max |d(i,j)-d*(j,i)| =  0.017658
     Max |d(i,j)-d*(j,i)|/|d(i,j)|: 326.1474%
     Max |d(i,j)-d*(j,i)| =  0.017658
     Max |d(i,j)-d*(j,i)|/|d(i,j)|: 418.1047%
     Max |d(i,j)-d*(j,i)| =  0.017658
     Max |d(i,j)-d*(j,i)|/|d(i,j)|: 363.7462%
     Max |d(i,j)-d*(j,i)| =  0.017658
     Max |d(i,j)-d*(j,i)|/|d(i,j)|: 614.5283%
     Max |d(i,j)-d*(j,i)| =  0.017658
     Max |d(i,j)-d*(j,i)|/|d(i,j)|: ********%
     Max |d(i,j)-d*(j,i)| =  0.017658
     Max |d(i,j)-d*(j,i)|/|d(i,j)|: 433.9513%
     Max |d(i,j)-d*(j,i)| =  0.017658
     Max |d(i,j)-d*(j,i)|/|d(i,j)|: 204.0079%
     Max |d(i,j)-d*(j,i)| =  0.017658
     Max |d(i,j)-d*(j,i)|/|d(i,j)|: 405.2031%
     Max |d(i,j)-d*(j,i)| =  0.017658
     Max |d(i,j)-d*(j,i)|/|d(i,j)|: ********%
     Max |d(i,j)-d*(j,i)| =  0.017658
     Max |d(i,j)-d*(j,i)|/|d(i,j)|: ********%
     Max |d(i,j)-d*(j,i)| =  0.017658
     Max |d(i,j)-d*(j,i)|/|d(i,j)|: ********%
     Max |d(i,j)-d*(j,i)| =  0.017658
     Max |d(i,j)-d*(j,i)|/|d(i,j)|: 719.2327%
     Max |d(i,j)-d*(j,i)| =  0.017658
     Max |d(i,j)-d*(j,i)|/|d(i,j)|: 244.0348%
     Max |d(i,j)-d*(j,i)| =  0.017658
     Max |d(i,j)-d*(j,i)|/|d(i,j)|: 346.9822%
     Max |d(i,j)-d*(j,i)| =  0.017658
     Max |d(i,j)-d*(j,i)|/|d(i,j)|: ********%
     Max |d(i,j)-d*(j,i)| =  0.017658
     Max |d(i,j)-d*(j,i)|/|d(i,j)|: 546.2930%
     Max |d(i,j)-d*(j,i)| =  0.017658
     Max |d(i,j)-d*(j,i)|/|d(i,j)|: 338.7004%
     Max |d(i,j)-d*(j,i)| =  0.017658
     Max |d(i,j)-d*(j,i)|/|d(i,j)|: 310.1786%
     Max |d(i,j)-d*(j,i)| =  0.017658
     Max |d(i,j)-d*(j,i)|/|d(i,j)|: 300.8653%
     Max |d(i,j)-d*(j,i)| =  0.017658
     Max |d(i,j)-d*(j,i)|/|d(i,j)|: 337.1985%
     Max |d(i,j)-d*(j,i)| =  0.017658
     Max |d(i,j)-d*(j,i)|/|d(i,j)|: 533.9936%
     Max |d(i,j)-d*(j,i)| =  0.017658
     Max |d(i,j)-d*(j,i)|/|d(i,j)|: ********%
     Max |d(i,j)-d*(j,i)| =  0.017658
     Max |d(i,j)-d*(j,i)|/|d(i,j)|: 397.1327%
     Max |d(i,j)-d*(j,i)| =  0.017658
     Max |d(i,j)-d*(j,i)|/|d(i,j)|: 221.2974%
     Max |d(i,j)-d*(j,i)| =  0.017658
     Max |d(i,j)-d*(j,i)|/|d(i,j)|: 605.4924%
     Max |d(i,j)-d*(j,i)| =  0.017658
     Max |d(i,j)-d*(j,i)|/|d(i,j)|: ********%
     Max |d(i,j)-d*(j,i)| =  0.017658
     Max |d(i,j)-d*(j,i)|/|d(i,j)|: 812.1881%

     MATDYN       :   4m36.33s CPU   4m37.39s WALL


   This run was terminated on:  14:35:52  29Jun2026            

=------------------------------------------------------------------------------=
   JOB DONE.
=------------------------------------------------------------------------------=
