
     Program DYNMAT v.7.0 starts on  6Jun2026 at  9:37:16 

     This program is part of the open-source Quantum ESPRESSO suite
     for quantum simulation of materials; please cite
         "P. Giannozzi et al., J. Phys.:Condens. Matter 21 395502 (2009);
         "P. Giannozzi et al., J. Phys.:Condens. Matter 29 465901 (2017);
         "P. Giannozzi et al., J. Chem. Phys. 152 154105 (2020);
          URL http://www.quantum-espresso.org", 
     in publications or presentations arising from this work. More details at
     http://www.quantum-espresso.org/quote

     Parallel version (MPI), running on    20 processors

     MPI processes distributed on     1 nodes
     R & G space division:  proc/nbgrp/npool/nimage =      20
     369052 MiB available memory on the printing compute node when the environment starts


     Reading Dynamical Matrix from file Al2O3.G.dyn
     ...Force constants read
     ...epsilon and Z* not read (not found on file)
     Acoustic Sum Rule: || Z*(ASR) - Z*(orig)|| =    0.000000E+00
     Acoustic Sum Rule: ||dyn(ASR) - dyn(orig)||=    7.954827E-04
     A direction for q was not specified:TO-LO splitting will be absent

     Polarizability (A^3 units)
     multiply by 1.000000 for Clausius-Mossotti correction
         0.000000    0.000000    0.000000
         0.000000    0.000000    0.000000
         0.000000    0.000000    0.000000

     IR activities are in (D/A)^2/amu units

# mode   [cm-1]    [THz]      IR
    1     -0.00   -0.0000    0.0000
    2      0.00    0.0000    0.0000
    3      0.00    0.0000    0.0000
    4    283.20    8.4900    0.0000
    5    355.10   10.6456    0.0000
    6    355.33   10.6524    0.0000
    7    359.65   10.7819    0.0000
    8    359.75   10.7852    0.0000
    9    368.39   11.0439    0.0000
   10    390.57   11.7089    0.0000
   11    401.25   12.0292    0.0000
   12    401.39   12.0333    0.0000
   13    416.58   12.4889    0.0000
   14    416.70   12.4923    0.0000
   15    425.13   12.7451    0.0000
   16    425.19   12.7469    0.0000
   17    510.28   15.2977    0.0000
   18    538.52   16.1444    0.0000
   19    538.76   16.1515    0.0000
   20    552.69   16.5691    0.0000
   21    552.76   16.5714    0.0000
   22    553.80   16.6024    0.0000
   23    567.71   17.0194    0.0000
   24    603.66   18.0972    0.0000
   25    603.79   18.1013    0.0000
   26    605.75   18.1601    0.0000
   27    661.51   19.8315    0.0000
   28    715.00   21.4353    0.0000
   29    715.49   21.4499    0.0000
   30    719.26   21.5628    0.0000

     DYNMAT       :      0.05s CPU      0.15s WALL


   This run was terminated on:   9:37:16   6Jun2026            

=------------------------------------------------------------------------------=
   JOB DONE.
=------------------------------------------------------------------------------=
