[Molden Format]
[FREQ]
    0.00
    0.00
    0.00
  283.20
  355.10
  355.33
  359.65
  359.75
  368.39
  390.57
  401.25
  401.39
  416.58
  416.70
  425.13
  425.19
  510.28
  538.52
  538.76
  552.69
  552.76
  553.80
  567.71
  603.66
  603.79
  605.75
  661.51
  715.00
  715.49
  719.26
[FR-COORD]
   O          13.74473        5.20129        1.86780
   O           8.84385        6.20587        0.41062
   O          12.10231        4.76539        7.09118
   O          10.80874        9.23302        4.16917
   O          10.13742        1.73823        3.33263
   O           7.20143        5.76997        5.63400
   Al          3.08065        1.61360        1.10333
   Al          7.39243        3.87203        2.64757
   Al         13.55374        7.09922        4.85423
   Al         17.86551        9.35766        6.39847
[FR-NORM-COORD]
 vibration     1
   0.06895   0.30821   0.01596
   0.06895   0.30821   0.01596
   0.06895   0.30821   0.01596
   0.06895   0.30821   0.01596
   0.06895   0.30821   0.01596
   0.06895   0.30821   0.01596
   0.06895   0.30821   0.01596
   0.06895   0.30821   0.01596
   0.06895   0.30821   0.01596
   0.06895   0.30821   0.01596
 vibration     2
   0.30783  -0.06986   0.01903
   0.30783  -0.06986   0.01903
   0.30783  -0.06986   0.01903
   0.30783  -0.06986   0.01903
   0.30783  -0.06986   0.01903
   0.30783  -0.06986   0.01903
   0.30783  -0.06986   0.01903
   0.30783  -0.06986   0.01903
   0.30783  -0.06986   0.01903
   0.30783  -0.06986   0.01903
 vibration     3
   0.02208   0.01138  -0.31525
   0.02208   0.01138  -0.31525
   0.02208   0.01138  -0.31525
   0.02208   0.01138  -0.31525
   0.02208   0.01138  -0.31525
   0.02208   0.01138  -0.31525
   0.02208   0.01138  -0.31525
   0.02208   0.01138  -0.31525
   0.02208   0.01138  -0.31525
   0.02208   0.01138  -0.31525
 vibration     4
  -0.00818  -0.00450  -0.07825
   0.00830   0.07488  -0.02436
  -0.00830  -0.07488   0.02436
  -0.06619   0.03585   0.02435
   0.06619  -0.03585  -0.02435
   0.00818   0.00450   0.07825
   0.41414   0.21732   0.14799
   0.41427   0.21668   0.14851
  -0.41427  -0.21668  -0.14851
  -0.41414  -0.21732  -0.14799
 vibration     5
  -0.01482   0.00959   0.00370
  -0.40421   0.10059  -0.27523
   0.40421  -0.10059   0.27523
  -0.14449  -0.38105  -0.26966
   0.14449   0.38105   0.26966
   0.01482  -0.00959  -0.00370
  -0.02577   0.00044   0.07166
   0.01592   0.01891  -0.07223
  -0.01592  -0.01891   0.07223
   0.02577  -0.00044  -0.07166
 vibration     6
  -0.46531  -0.24425   0.22076
  -0.23238   0.06162  -0.13786
   0.23238  -0.06162   0.13786
   0.08702   0.23923   0.14769
  -0.08702  -0.23923  -0.14769
   0.46531   0.24425  -0.22076
  -0.03194   0.06862  -0.01138
   0.03757  -0.06569  -0.00931
  -0.03757   0.06569   0.00931
   0.03194  -0.06862   0.01138
 vibration     7
  -0.02917  -0.19971  -0.04872
   0.29787   0.16569   0.07252
   0.29787   0.16569   0.07252
  -0.18974  -0.15962   0.05735
  -0.18974  -0.15962   0.05735
  -0.02917  -0.19971  -0.04872
  -0.17561   0.12887   0.29633
   0.12879  -0.01405  -0.34445
   0.12879  -0.01405  -0.34445
  -0.17561   0.12887   0.29633
 vibration     8
   0.29597   0.08162   0.12092
   0.03928  -0.08106  -0.15698
   0.03928  -0.08106  -0.15698
  -0.24168  -0.04496  -0.16232
  -0.24168  -0.04496  -0.16232
   0.29597   0.08162   0.12092
   0.09245  -0.30393   0.18686
  -0.14793   0.33026  -0.06924
  -0.14793   0.33026  -0.06924
   0.09245  -0.30393   0.18686
 vibration     9
  -0.29649  -0.15615   0.10863
  -0.29509   0.04599  -0.18419
  -0.29509   0.04599  -0.18419
  -0.13186  -0.26962  -0.18321
  -0.13186  -0.26962  -0.18321
  -0.29649  -0.15615   0.10863
   0.21345   0.11314   0.07879
   0.21552   0.11205   0.07464
   0.21552   0.11205   0.07464
   0.21345   0.11314   0.07879
 vibration    10
  -0.03221   0.06127  -0.00009
  -0.03205   0.02252   0.05777
   0.03205  -0.02252  -0.05777
   0.00035  -0.03948   0.05758
  -0.00035   0.03948  -0.05758
   0.03221  -0.06127   0.00009
   0.41590   0.21799   0.14914
  -0.41616  -0.21756  -0.14899
   0.41616   0.21756   0.14899
  -0.41590  -0.21799  -0.14914
 vibration    11
   0.09623   0.06609   0.19971
   0.22711  -0.02643  -0.32589
  -0.22711   0.02643   0.32589
  -0.12066  -0.19160   0.31568
   0.12066   0.19160  -0.31568
  -0.09623  -0.06609  -0.19971
   0.01904   0.12188  -0.23130
   0.11608  -0.06894  -0.22392
  -0.11608   0.06894   0.22392
  -0.01904  -0.12188   0.23130
 vibration    12
  -0.20485   0.38117  -0.00610
   0.00298  -0.24726  -0.14917
  -0.00298   0.24726   0.14917
  -0.19395   0.15590  -0.17091
   0.19395  -0.15590   0.17091
   0.20485  -0.38117   0.00610
   0.13978  -0.20053  -0.09560
   0.07821  -0.22567   0.11062
  -0.07821   0.22567  -0.11062
  -0.13978   0.20053   0.09560
 vibration    13
   0.16105   0.27042  -0.03701
  -0.33849  -0.02927  -0.22669
  -0.33849  -0.02927  -0.22669
   0.07294   0.21237  -0.10462
   0.07294   0.21237  -0.10462
   0.16105   0.27042  -0.03701
  -0.08712  -0.02436   0.27848
   0.14909  -0.24456  -0.06008
   0.14909  -0.24456  -0.06008
  -0.08712  -0.02436   0.27848
 vibration    14
  -0.34166  -0.01750   0.04250
  -0.16683   0.06582   0.14072
  -0.16683   0.06582   0.14072
   0.20862   0.23185   0.24708
   0.20862   0.23185   0.24708
  -0.34166  -0.01750   0.04250
   0.13023  -0.26105   0.01722
   0.04758   0.09493  -0.27237
   0.04758   0.09493  -0.27237
   0.13023  -0.26105   0.01722
 vibration    15
   0.15703  -0.06233  -0.04015
  -0.13621   0.10256   0.27707
   0.13621  -0.10256  -0.27707
  -0.03558   0.03125  -0.21676
   0.03558  -0.03125   0.21676
  -0.15703   0.06233   0.04015
  -0.09221   0.32173  -0.21411
   0.15890  -0.35521   0.07417
  -0.15890   0.35521  -0.07417
   0.09221  -0.32173   0.21411
 vibration    16
   0.09788  -0.28994   0.01694
  -0.12451   0.03392  -0.03298
   0.12451  -0.03392   0.03298
  -0.02626  -0.20755   0.17450
   0.02626   0.20755  -0.17450
  -0.09788   0.28994  -0.01694
   0.19114  -0.15257  -0.31107
  -0.14085   0.01525   0.37076
   0.14085  -0.01525  -0.37076
  -0.19114   0.15257   0.31107
 vibration    17
  -0.28998  -0.15081   0.24420
   0.28862  -0.17276   0.22914
  -0.28862   0.17276  -0.22914
  -0.02288  -0.33584  -0.22990
   0.02288   0.33584   0.22990
   0.28998   0.15081  -0.24420
   0.02366   0.01388   0.00980
   0.02376   0.01429   0.00967
  -0.02376  -0.01429  -0.00967
  -0.02366  -0.01388  -0.00980
 vibration    18
   0.33342  -0.04641   0.17603
  -0.33430  -0.18746   0.06212
  -0.33430  -0.18746   0.06212
   0.03007  -0.18521   0.28898
   0.03007  -0.18521   0.28898
   0.33342  -0.04641   0.17603
  -0.03849   0.16084  -0.12558
   0.02118   0.08766  -0.18698
   0.02118   0.08766  -0.18698
  -0.03849   0.16084  -0.12558
 vibration    19
  -0.03840  -0.33584  -0.12235
   0.01912  -0.21031  -0.28477
   0.01912  -0.21031  -0.28477
   0.38073   0.11002   0.04178
   0.38073   0.11002   0.04178
  -0.03840  -0.33584  -0.12235
  -0.10565   0.09387   0.15242
  -0.10867   0.16474   0.06421
  -0.10867   0.16474   0.06421
  -0.10565   0.09387   0.15242
 vibration    20
  -0.08871   0.04579  -0.05698
  -0.13884   0.02428   0.17865
   0.13884  -0.02428  -0.17865
   0.02132   0.17086  -0.24743
  -0.02132  -0.17086   0.24743
   0.08871  -0.04579   0.05698
   0.14778  -0.01729  -0.38738
  -0.04599   0.28887  -0.29389
   0.04599  -0.28887   0.29389
  -0.14778   0.01729   0.38738
 vibration    21
   0.12496  -0.27399  -0.01383
  -0.06454   0.11558   0.18624
   0.06454  -0.11558  -0.18624
   0.08155  -0.04117   0.06864
  -0.08155   0.04117  -0.06864
  -0.12496   0.27399   0.01383
   0.16630  -0.37120   0.07975
   0.21769  -0.23427  -0.26416
  -0.21769   0.23427   0.26416
  -0.16630   0.37120  -0.07975
 vibration    22
  -0.02070  -0.01180  -0.39509
  -0.01789  -0.37080   0.13154
  -0.01789  -0.37080   0.13154
  -0.31650   0.19739   0.13391
  -0.31650   0.19739   0.13391
  -0.02070  -0.01180  -0.39509
   0.10529   0.05472   0.03811
   0.10526   0.05510   0.03876
   0.10526   0.05510   0.03876
   0.10529   0.05472   0.03811
 vibration    23
   0.09375  -0.18078  -0.00279
  -0.09447   0.06511   0.16706
  -0.09447   0.06511   0.16706
   0.00220   0.11344  -0.16669
   0.00220   0.11344  -0.16669
   0.09375  -0.18078  -0.00279
   0.36640   0.19189   0.13207
  -0.36728  -0.19057  -0.13063
  -0.36728  -0.19057  -0.13063
   0.36640   0.19189   0.13207
 vibration    24
   0.08539   0.09440  -0.45603
  -0.16932   0.24000   0.15182
  -0.16932   0.24000   0.15182
   0.17000  -0.33256   0.05847
   0.17000  -0.33256   0.05847
   0.08539   0.09440  -0.45603
   0.00508  -0.06984   0.08305
  -0.05612   0.06874   0.06266
  -0.05612   0.06874   0.06266
   0.00508  -0.06984   0.08305
 vibration    25
  -0.15412   0.25715   0.06691
   0.04805  -0.34484   0.29666
   0.04805  -0.34484   0.29666
   0.21299  -0.14512  -0.32644
   0.21299  -0.14512  -0.32644
  -0.15412   0.25715   0.06691
  -0.05716   0.06842   0.06090
  -0.00623   0.06963  -0.08292
  -0.00623   0.06963  -0.08292
  -0.05716   0.06842   0.06090
 vibration    26
  -0.18811   0.36005  -0.00009
  -0.18858   0.12953   0.33508
   0.18858  -0.12953  -0.33508
   0.00049  -0.22911   0.33564
  -0.00049   0.22911  -0.33564
   0.18811  -0.36005   0.00009
  -0.04306  -0.02250  -0.01527
   0.04329   0.02243   0.01545
  -0.04329  -0.02243  -0.01545
   0.04306   0.02250   0.01527
 vibration    27
   0.17893  -0.34369   0.00118
  -0.17930   0.12298   0.31855
  -0.17930   0.12298   0.31855
   0.00035   0.21911  -0.31867
   0.00035   0.21911  -0.31867
   0.17893  -0.34369   0.00118
  -0.13542  -0.07071  -0.04898
   0.13543   0.07166   0.04835
   0.13543   0.07166   0.04835
  -0.13542  -0.07071  -0.04898
 vibration    28
   0.11533  -0.14736   0.08498
  -0.18929  -0.34988   0.17361
   0.18929   0.34988  -0.17361
  -0.47531   0.09784   0.14561
   0.47531  -0.09784  -0.14561
  -0.11533   0.14736  -0.08498
  -0.03672   0.02602   0.06565
  -0.01394   0.06093  -0.04944
   0.01394  -0.06093   0.04944
   0.03672  -0.02602  -0.06565
 vibration    29
  -0.14431  -0.11085  -0.47864
  -0.05367  -0.38178  -0.05582
   0.05367   0.38178   0.05582
   0.19840  -0.14908   0.10870
  -0.19840   0.14908  -0.10870
   0.14431   0.11085   0.47864
  -0.01892   0.06765  -0.03749
   0.04228  -0.03619  -0.05657
  -0.04228   0.03619   0.05657
   0.01892  -0.06765   0.03749
 vibration    30
  -0.22555  -0.12053  -0.34658
   0.21471   0.32203  -0.01187
  -0.21471  -0.32203   0.01187
  -0.39890   0.00830   0.01726
   0.39890  -0.00830  -0.01726
   0.22555   0.12053   0.34658
  -0.04334  -0.01966  -0.01600
  -0.04017  -0.02346  -0.01881
   0.04017   0.02346   0.01881
   0.04334   0.01966   0.01600
