ANIMSTEPS   30
CRYSTAL
PRIMVEC
    5.186866606   -0.005920746   -0.004048426
    2.948682826    4.267187601   -0.004048405
    2.948682821    1.544471534    3.977878086
PRIMCOORD    1
     10   1
   O      7.27340   2.75240   0.98840   0.00690   0.03082   0.00160
   O      4.67996   3.28400   0.21729   0.00690   0.03082   0.00160
   O      6.40427   2.52173   3.75249   0.00690   0.03082   0.00160
   O      5.71974   4.88591   2.20623   0.00690   0.03082   0.00160
   O      5.36449   0.91983   1.76355   0.00690   0.03082   0.00160
   O      3.81083   3.05334   2.98138   0.00690   0.03082   0.00160
   Al     1.63021   0.85388   0.58385   0.00690   0.03082   0.00160
   Al     3.91190   2.04899   1.40104   0.00690   0.03082   0.00160
   Al     7.17233   3.75675   2.56875   0.00690   0.03082   0.00160
   Al     9.45402   4.95186   3.38593   0.00690   0.03082   0.00160
PRIMCOORD    2
     10   1
   O      7.27340   2.75240   0.98840   0.03078  -0.00699   0.00190
   O      4.67996   3.28400   0.21729   0.03078  -0.00699   0.00190
   O      6.40427   2.52173   3.75249   0.03078  -0.00699   0.00190
   O      5.71974   4.88591   2.20623   0.03078  -0.00699   0.00190
   O      5.36449   0.91983   1.76355   0.03078  -0.00699   0.00190
   O      3.81083   3.05334   2.98138   0.03078  -0.00699   0.00190
   Al     1.63021   0.85388   0.58385   0.03078  -0.00699   0.00190
   Al     3.91190   2.04899   1.40104   0.03078  -0.00699   0.00190
   Al     7.17233   3.75675   2.56875   0.03078  -0.00699   0.00190
   Al     9.45402   4.95186   3.38593   0.03078  -0.00699   0.00190
PRIMCOORD    3
     10   1
   O      7.27340   2.75240   0.98840   0.00221   0.00114  -0.03153
   O      4.67996   3.28400   0.21729   0.00221   0.00114  -0.03153
   O      6.40427   2.52173   3.75249   0.00221   0.00114  -0.03153
   O      5.71974   4.88591   2.20623   0.00221   0.00114  -0.03153
   O      5.36449   0.91983   1.76355   0.00221   0.00114  -0.03153
   O      3.81083   3.05334   2.98138   0.00221   0.00114  -0.03153
   Al     1.63021   0.85388   0.58385   0.00221   0.00114  -0.03153
   Al     3.91190   2.04899   1.40104   0.00221   0.00114  -0.03153
   Al     7.17233   3.75675   2.56875   0.00221   0.00114  -0.03153
   Al     9.45402   4.95186   3.38593   0.00221   0.00114  -0.03153
PRIMCOORD    4
     10   1
   O      7.27340   2.75240   0.98840  -0.00082  -0.00045  -0.00783
   O      4.67996   3.28400   0.21729   0.00083   0.00749  -0.00244
   O      6.40427   2.52173   3.75249  -0.00083  -0.00749   0.00244
   O      5.71974   4.88591   2.20623  -0.00662   0.00358   0.00243
   O      5.36449   0.91983   1.76355   0.00662  -0.00358  -0.00243
   O      3.81083   3.05334   2.98138   0.00082   0.00045   0.00783
   Al     1.63021   0.85388   0.58385   0.04141   0.02173   0.01480
   Al     3.91190   2.04899   1.40104   0.04143   0.02167   0.01485
   Al     7.17233   3.75675   2.56875  -0.04143  -0.02167  -0.01485
   Al     9.45402   4.95186   3.38593  -0.04141  -0.02173  -0.01480
PRIMCOORD    5
     10   1
   O      7.27340   2.75240   0.98840  -0.00148   0.00096   0.00037
   O      4.67996   3.28400   0.21729  -0.04042   0.01006  -0.02752
   O      6.40427   2.52173   3.75249   0.04042  -0.01006   0.02752
   O      5.71974   4.88591   2.20623  -0.01445  -0.03810  -0.02697
   O      5.36449   0.91983   1.76355   0.01445   0.03810   0.02697
   O      3.81083   3.05334   2.98138   0.00148  -0.00096  -0.00037
   Al     1.63021   0.85388   0.58385  -0.00258   0.00004   0.00717
   Al     3.91190   2.04899   1.40104   0.00159   0.00189  -0.00722
   Al     7.17233   3.75675   2.56875  -0.00159  -0.00189   0.00722
   Al     9.45402   4.95186   3.38593   0.00258  -0.00004  -0.00717
PRIMCOORD    6
     10   1
   O      7.27340   2.75240   0.98840  -0.04653  -0.02443   0.02208
   O      4.67996   3.28400   0.21729  -0.02324   0.00616  -0.01379
   O      6.40427   2.52173   3.75249   0.02324  -0.00616   0.01379
   O      5.71974   4.88591   2.20623   0.00870   0.02392   0.01477
   O      5.36449   0.91983   1.76355  -0.00870  -0.02392  -0.01477
   O      3.81083   3.05334   2.98138   0.04653   0.02443  -0.02208
   Al     1.63021   0.85388   0.58385  -0.00319   0.00686  -0.00114
   Al     3.91190   2.04899   1.40104   0.00376  -0.00657  -0.00093
   Al     7.17233   3.75675   2.56875  -0.00376   0.00657   0.00093
   Al     9.45402   4.95186   3.38593   0.00319  -0.00686   0.00114
PRIMCOORD    7
     10   1
   O      7.27340   2.75240   0.98840  -0.00292  -0.01997  -0.00487
   O      4.67996   3.28400   0.21729   0.02979   0.01657   0.00725
   O      6.40427   2.52173   3.75249   0.02979   0.01657   0.00725
   O      5.71974   4.88591   2.20623  -0.01897  -0.01596   0.00574
   O      5.36449   0.91983   1.76355  -0.01897  -0.01596   0.00574
   O      3.81083   3.05334   2.98138  -0.00292  -0.01997  -0.00487
   Al     1.63021   0.85388   0.58385  -0.01756   0.01289   0.02963
   Al     3.91190   2.04899   1.40104   0.01288  -0.00141  -0.03444
   Al     7.17233   3.75675   2.56875   0.01288  -0.00141  -0.03444
   Al     9.45402   4.95186   3.38593  -0.01756   0.01289   0.02963
PRIMCOORD    8
     10   1
   O      7.27340   2.75240   0.98840   0.02960   0.00816   0.01209
   O      4.67996   3.28400   0.21729   0.00393  -0.00811  -0.01570
   O      6.40427   2.52173   3.75249   0.00393  -0.00811  -0.01570
   O      5.71974   4.88591   2.20623  -0.02417  -0.00450  -0.01623
   O      5.36449   0.91983   1.76355  -0.02417  -0.00450  -0.01623
   O      3.81083   3.05334   2.98138   0.02960   0.00816   0.01209
   Al     1.63021   0.85388   0.58385   0.00924  -0.03039   0.01869
   Al     3.91190   2.04899   1.40104  -0.01479   0.03303  -0.00692
   Al     7.17233   3.75675   2.56875  -0.01479   0.03303  -0.00692
   Al     9.45402   4.95186   3.38593   0.00924  -0.03039   0.01869
PRIMCOORD    9
     10   1
   O      7.27340   2.75240   0.98840  -0.02965  -0.01561   0.01086
   O      4.67996   3.28400   0.21729  -0.02951   0.00460  -0.01842
   O      6.40427   2.52173   3.75249  -0.02951   0.00460  -0.01842
   O      5.71974   4.88591   2.20623  -0.01319  -0.02696  -0.01832
   O      5.36449   0.91983   1.76355  -0.01319  -0.02696  -0.01832
   O      3.81083   3.05334   2.98138  -0.02965  -0.01561   0.01086
   Al     1.63021   0.85388   0.58385   0.02134   0.01131   0.00788
   Al     3.91190   2.04899   1.40104   0.02155   0.01120   0.00746
   Al     7.17233   3.75675   2.56875   0.02155   0.01120   0.00746
   Al     9.45402   4.95186   3.38593   0.02134   0.01131   0.00788
PRIMCOORD   10
     10   1
   O      7.27340   2.75240   0.98840  -0.00322   0.00613  -0.00001
   O      4.67996   3.28400   0.21729  -0.00320   0.00225   0.00578
   O      6.40427   2.52173   3.75249   0.00320  -0.00225  -0.00578
   O      5.71974   4.88591   2.20623   0.00003  -0.00395   0.00576
   O      5.36449   0.91983   1.76355  -0.00003   0.00395  -0.00576
   O      3.81083   3.05334   2.98138   0.00322  -0.00613   0.00001
   Al     1.63021   0.85388   0.58385   0.04159   0.02180   0.01491
   Al     3.91190   2.04899   1.40104  -0.04162  -0.02176  -0.01490
   Al     7.17233   3.75675   2.56875   0.04162   0.02176   0.01490
   Al     9.45402   4.95186   3.38593  -0.04159  -0.02180  -0.01491
PRIMCOORD   11
     10   1
   O      7.27340   2.75240   0.98840   0.00962   0.00661   0.01997
   O      4.67996   3.28400   0.21729   0.02271  -0.00264  -0.03259
   O      6.40427   2.52173   3.75249  -0.02271   0.00264   0.03259
   O      5.71974   4.88591   2.20623  -0.01207  -0.01916   0.03157
   O      5.36449   0.91983   1.76355   0.01207   0.01916  -0.03157
   O      3.81083   3.05334   2.98138  -0.00962  -0.00661  -0.01997
   Al     1.63021   0.85388   0.58385   0.00190   0.01219  -0.02313
   Al     3.91190   2.04899   1.40104   0.01161  -0.00689  -0.02239
   Al     7.17233   3.75675   2.56875  -0.01161   0.00689   0.02239
   Al     9.45402   4.95186   3.38593  -0.00190  -0.01219   0.02313
PRIMCOORD   12
     10   1
   O      7.27340   2.75240   0.98840  -0.02049   0.03812  -0.00061
   O      4.67996   3.28400   0.21729   0.00030  -0.02473  -0.01492
   O      6.40427   2.52173   3.75249  -0.00030   0.02473   0.01492
   O      5.71974   4.88591   2.20623  -0.01940   0.01559  -0.01709
   O      5.36449   0.91983   1.76355   0.01940  -0.01559   0.01709
   O      3.81083   3.05334   2.98138   0.02049  -0.03812   0.00061
   Al     1.63021   0.85388   0.58385   0.01398  -0.02005  -0.00956
   Al     3.91190   2.04899   1.40104   0.00782  -0.02257   0.01106
   Al     7.17233   3.75675   2.56875  -0.00782   0.02257  -0.01106
   Al     9.45402   4.95186   3.38593  -0.01398   0.02005   0.00956
PRIMCOORD   13
     10   1
   O      7.27340   2.75240   0.98840   0.01610   0.02704  -0.00370
   O      4.67996   3.28400   0.21729  -0.03385  -0.00293  -0.02267
   O      6.40427   2.52173   3.75249  -0.03385  -0.00293  -0.02267
   O      5.71974   4.88591   2.20623   0.00729   0.02124  -0.01046
   O      5.36449   0.91983   1.76355   0.00729   0.02124  -0.01046
   O      3.81083   3.05334   2.98138   0.01610   0.02704  -0.00370
   Al     1.63021   0.85388   0.58385  -0.00871  -0.00244   0.02785
   Al     3.91190   2.04899   1.40104   0.01491  -0.02446  -0.00601
   Al     7.17233   3.75675   2.56875   0.01491  -0.02446  -0.00601
   Al     9.45402   4.95186   3.38593  -0.00871  -0.00244   0.02785
PRIMCOORD   14
     10   1
   O      7.27340   2.75240   0.98840  -0.03417  -0.00175   0.00425
   O      4.67996   3.28400   0.21729  -0.01668   0.00658   0.01407
   O      6.40427   2.52173   3.75249  -0.01668   0.00658   0.01407
   O      5.71974   4.88591   2.20623   0.02086   0.02318   0.02471
   O      5.36449   0.91983   1.76355   0.02086   0.02318   0.02471
   O      3.81083   3.05334   2.98138  -0.03417  -0.00175   0.00425
   Al     1.63021   0.85388   0.58385   0.01302  -0.02610   0.00172
   Al     3.91190   2.04899   1.40104   0.00476   0.00949  -0.02724
   Al     7.17233   3.75675   2.56875   0.00476   0.00949  -0.02724
   Al     9.45402   4.95186   3.38593   0.01302  -0.02610   0.00172
PRIMCOORD   15
     10   1
   O      7.27340   2.75240   0.98840   0.01570  -0.00623  -0.00402
   O      4.67996   3.28400   0.21729  -0.01362   0.01026   0.02771
   O      6.40427   2.52173   3.75249   0.01362  -0.01026  -0.02771
   O      5.71974   4.88591   2.20623  -0.00356   0.00312  -0.02168
   O      5.36449   0.91983   1.76355   0.00356  -0.00312   0.02168
   O      3.81083   3.05334   2.98138  -0.01570   0.00623   0.00402
   Al     1.63021   0.85388   0.58385  -0.00922   0.03217  -0.02141
   Al     3.91190   2.04899   1.40104   0.01589  -0.03552   0.00742
   Al     7.17233   3.75675   2.56875  -0.01589   0.03552  -0.00742
   Al     9.45402   4.95186   3.38593   0.00922  -0.03217   0.02141
PRIMCOORD   16
     10   1
   O      7.27340   2.75240   0.98840   0.00979  -0.02899   0.00169
   O      4.67996   3.28400   0.21729  -0.01245   0.00339  -0.00330
   O      6.40427   2.52173   3.75249   0.01245  -0.00339   0.00330
   O      5.71974   4.88591   2.20623  -0.00263  -0.02076   0.01745
   O      5.36449   0.91983   1.76355   0.00263   0.02076  -0.01745
   O      3.81083   3.05334   2.98138  -0.00979   0.02899  -0.00169
   Al     1.63021   0.85388   0.58385   0.01911  -0.01526  -0.03111
   Al     3.91190   2.04899   1.40104  -0.01409   0.00153   0.03708
   Al     7.17233   3.75675   2.56875   0.01409  -0.00153  -0.03708
   Al     9.45402   4.95186   3.38593  -0.01911   0.01526   0.03111
PRIMCOORD   17
     10   1
   O      7.27340   2.75240   0.98840  -0.02900  -0.01508   0.02442
   O      4.67996   3.28400   0.21729   0.02886  -0.01728   0.02291
   O      6.40427   2.52173   3.75249  -0.02886   0.01728  -0.02291
   O      5.71974   4.88591   2.20623  -0.00229  -0.03358  -0.02299
   O      5.36449   0.91983   1.76355   0.00229   0.03358   0.02299
   O      3.81083   3.05334   2.98138   0.02900   0.01508  -0.02442
   Al     1.63021   0.85388   0.58385   0.00237   0.00139   0.00098
   Al     3.91190   2.04899   1.40104   0.00238   0.00143   0.00097
   Al     7.17233   3.75675   2.56875  -0.00238  -0.00143  -0.00097
   Al     9.45402   4.95186   3.38593  -0.00237  -0.00139  -0.00098
PRIMCOORD   18
     10   1
   O      7.27340   2.75240   0.98840   0.03334  -0.00464   0.01760
   O      4.67996   3.28400   0.21729  -0.03343  -0.01875   0.00621
   O      6.40427   2.52173   3.75249  -0.03343  -0.01875   0.00621
   O      5.71974   4.88591   2.20623   0.00301  -0.01852   0.02890
   O      5.36449   0.91983   1.76355   0.00301  -0.01852   0.02890
   O      3.81083   3.05334   2.98138   0.03334  -0.00464   0.01760
   Al     1.63021   0.85388   0.58385  -0.00385   0.01608  -0.01256
   Al     3.91190   2.04899   1.40104   0.00212   0.00877  -0.01870
   Al     7.17233   3.75675   2.56875   0.00212   0.00877  -0.01870
   Al     9.45402   4.95186   3.38593  -0.00385   0.01608  -0.01256
PRIMCOORD   19
     10   1
   O      7.27340   2.75240   0.98840  -0.00384  -0.03358  -0.01223
   O      4.67996   3.28400   0.21729   0.00191  -0.02103  -0.02848
   O      6.40427   2.52173   3.75249   0.00191  -0.02103  -0.02848
   O      5.71974   4.88591   2.20623   0.03807   0.01100   0.00418
   O      5.36449   0.91983   1.76355   0.03807   0.01100   0.00418
   O      3.81083   3.05334   2.98138  -0.00384  -0.03358  -0.01223
   Al     1.63021   0.85388   0.58385  -0.01057   0.00939   0.01524
   Al     3.91190   2.04899   1.40104  -0.01087   0.01647   0.00642
   Al     7.17233   3.75675   2.56875  -0.01087   0.01647   0.00642
   Al     9.45402   4.95186   3.38593  -0.01057   0.00939   0.01524
PRIMCOORD   20
     10   1
   O      7.27340   2.75240   0.98840  -0.00887   0.00458  -0.00570
   O      4.67996   3.28400   0.21729  -0.01388   0.00243   0.01786
   O      6.40427   2.52173   3.75249   0.01388  -0.00243  -0.01786
   O      5.71974   4.88591   2.20623   0.00213   0.01709  -0.02474
   O      5.36449   0.91983   1.76355  -0.00213  -0.01709   0.02474
   O      3.81083   3.05334   2.98138   0.00887  -0.00458   0.00570
   Al     1.63021   0.85388   0.58385   0.01478  -0.00173  -0.03874
   Al     3.91190   2.04899   1.40104  -0.00460   0.02889  -0.02939
   Al     7.17233   3.75675   2.56875   0.00460  -0.02889   0.02939
   Al     9.45402   4.95186   3.38593  -0.01478   0.00173   0.03874
PRIMCOORD   21
     10   1
   O      7.27340   2.75240   0.98840   0.01250  -0.02740  -0.00138
   O      4.67996   3.28400   0.21729  -0.00645   0.01156   0.01862
   O      6.40427   2.52173   3.75249   0.00645  -0.01156  -0.01862
   O      5.71974   4.88591   2.20623   0.00816  -0.00412   0.00686
   O      5.36449   0.91983   1.76355  -0.00816   0.00412  -0.00686
   O      3.81083   3.05334   2.98138  -0.01250   0.02740   0.00138
   Al     1.63021   0.85388   0.58385   0.01663  -0.03712   0.00798
   Al     3.91190   2.04899   1.40104   0.02177  -0.02343  -0.02642
   Al     7.17233   3.75675   2.56875  -0.02177   0.02343   0.02642
   Al     9.45402   4.95186   3.38593  -0.01663   0.03712  -0.00798
PRIMCOORD   22
     10   1
   O      7.27340   2.75240   0.98840  -0.00207  -0.00118  -0.03951
   O      4.67996   3.28400   0.21729  -0.00179  -0.03708   0.01315
   O      6.40427   2.52173   3.75249  -0.00179  -0.03708   0.01315
   O      5.71974   4.88591   2.20623  -0.03165   0.01974   0.01339
   O      5.36449   0.91983   1.76355  -0.03165   0.01974   0.01339
   O      3.81083   3.05334   2.98138  -0.00207  -0.00118  -0.03951
   Al     1.63021   0.85388   0.58385   0.01053   0.00547   0.00381
   Al     3.91190   2.04899   1.40104   0.01053   0.00551   0.00388
   Al     7.17233   3.75675   2.56875   0.01053   0.00551   0.00388
   Al     9.45402   4.95186   3.38593   0.01053   0.00547   0.00381
PRIMCOORD   23
     10   1
   O      7.27340   2.75240   0.98840   0.00938  -0.01808  -0.00028
   O      4.67996   3.28400   0.21729  -0.00945   0.00651   0.01671
   O      6.40427   2.52173   3.75249  -0.00945   0.00651   0.01671
   O      5.71974   4.88591   2.20623   0.00022   0.01134  -0.01667
   O      5.36449   0.91983   1.76355   0.00022   0.01134  -0.01667
   O      3.81083   3.05334   2.98138   0.00938  -0.01808  -0.00028
   Al     1.63021   0.85388   0.58385   0.03664   0.01919   0.01321
   Al     3.91190   2.04899   1.40104  -0.03673  -0.01906  -0.01306
   Al     7.17233   3.75675   2.56875  -0.03673  -0.01906  -0.01306
   Al     9.45402   4.95186   3.38593   0.03664   0.01919   0.01321
PRIMCOORD   24
     10   1
   O      7.27340   2.75240   0.98840   0.00854   0.00944  -0.04560
   O      4.67996   3.28400   0.21729  -0.01693   0.02400   0.01518
   O      6.40427   2.52173   3.75249  -0.01693   0.02400   0.01518
   O      5.71974   4.88591   2.20623   0.01700  -0.03326   0.00585
   O      5.36449   0.91983   1.76355   0.01700  -0.03326   0.00585
   O      3.81083   3.05334   2.98138   0.00854   0.00944  -0.04560
   Al     1.63021   0.85388   0.58385   0.00051  -0.00698   0.00830
   Al     3.91190   2.04899   1.40104  -0.00561   0.00687   0.00627
   Al     7.17233   3.75675   2.56875  -0.00561   0.00687   0.00627
   Al     9.45402   4.95186   3.38593   0.00051  -0.00698   0.00830
PRIMCOORD   25
     10   1
   O      7.27340   2.75240   0.98840  -0.01541   0.02572   0.00669
   O      4.67996   3.28400   0.21729   0.00480  -0.03448   0.02967
   O      6.40427   2.52173   3.75249   0.00480  -0.03448   0.02967
   O      5.71974   4.88591   2.20623   0.02130  -0.01451  -0.03264
   O      5.36449   0.91983   1.76355   0.02130  -0.01451  -0.03264
   O      3.81083   3.05334   2.98138  -0.01541   0.02572   0.00669
   Al     1.63021   0.85388   0.58385  -0.00572   0.00684   0.00609
   Al     3.91190   2.04899   1.40104  -0.00062   0.00696  -0.00829
   Al     7.17233   3.75675   2.56875  -0.00062   0.00696  -0.00829
   Al     9.45402   4.95186   3.38593  -0.00572   0.00684   0.00609
PRIMCOORD   26
     10   1
   O      7.27340   2.75240   0.98840  -0.01881   0.03601  -0.00001
   O      4.67996   3.28400   0.21729  -0.01886   0.01295   0.03351
   O      6.40427   2.52173   3.75249   0.01886  -0.01295  -0.03351
   O      5.71974   4.88591   2.20623   0.00005  -0.02291   0.03356
   O      5.36449   0.91983   1.76355  -0.00005   0.02291  -0.03356
   O      3.81083   3.05334   2.98138   0.01881  -0.03601   0.00001
   Al     1.63021   0.85388   0.58385  -0.00431  -0.00225  -0.00153
   Al     3.91190   2.04899   1.40104   0.00433   0.00224   0.00154
   Al     7.17233   3.75675   2.56875  -0.00433  -0.00224  -0.00154
   Al     9.45402   4.95186   3.38593   0.00431   0.00225   0.00153
PRIMCOORD   27
     10   1
   O      7.27340   2.75240   0.98840   0.01789  -0.03437   0.00012
   O      4.67996   3.28400   0.21729  -0.01793   0.01230   0.03186
   O      6.40427   2.52173   3.75249  -0.01793   0.01230   0.03186
   O      5.71974   4.88591   2.20623   0.00004   0.02191  -0.03187
   O      5.36449   0.91983   1.76355   0.00004   0.02191  -0.03187
   O      3.81083   3.05334   2.98138   0.01789  -0.03437   0.00012
   Al     1.63021   0.85388   0.58385  -0.01354  -0.00707  -0.00490
   Al     3.91190   2.04899   1.40104   0.01354   0.00717   0.00484
   Al     7.17233   3.75675   2.56875   0.01354   0.00717   0.00484
   Al     9.45402   4.95186   3.38593  -0.01354  -0.00707  -0.00490
PRIMCOORD   28
     10   1
   O      7.27340   2.75240   0.98840   0.01153  -0.01474   0.00850
   O      4.67996   3.28400   0.21729  -0.01893  -0.03499   0.01736
   O      6.40427   2.52173   3.75249   0.01893   0.03499  -0.01736
   O      5.71974   4.88591   2.20623  -0.04753   0.00978   0.01456
   O      5.36449   0.91983   1.76355   0.04753  -0.00978  -0.01456
   O      3.81083   3.05334   2.98138  -0.01153   0.01474  -0.00850
   Al     1.63021   0.85388   0.58385  -0.00367   0.00260   0.00657
   Al     3.91190   2.04899   1.40104  -0.00139   0.00609  -0.00494
   Al     7.17233   3.75675   2.56875   0.00139  -0.00609   0.00494
   Al     9.45402   4.95186   3.38593   0.00367  -0.00260  -0.00657
PRIMCOORD   29
     10   1
   O      7.27340   2.75240   0.98840  -0.01443  -0.01108  -0.04786
   O      4.67996   3.28400   0.21729  -0.00537  -0.03818  -0.00558
   O      6.40427   2.52173   3.75249   0.00537   0.03818   0.00558
   O      5.71974   4.88591   2.20623   0.01984  -0.01491   0.01087
   O      5.36449   0.91983   1.76355  -0.01984   0.01491  -0.01087
   O      3.81083   3.05334   2.98138   0.01443   0.01108   0.04786
   Al     1.63021   0.85388   0.58385  -0.00189   0.00676  -0.00375
   Al     3.91190   2.04899   1.40104   0.00423  -0.00362  -0.00566
   Al     7.17233   3.75675   2.56875  -0.00423   0.00362   0.00566
   Al     9.45402   4.95186   3.38593   0.00189  -0.00676   0.00375
PRIMCOORD   30
     10   1
   O      7.27340   2.75240   0.98840  -0.02256  -0.01205  -0.03466
   O      4.67996   3.28400   0.21729   0.02147   0.03220  -0.00119
   O      6.40427   2.52173   3.75249  -0.02147  -0.03220   0.00119
   O      5.71974   4.88591   2.20623  -0.03989   0.00083   0.00173
   O      5.36449   0.91983   1.76355   0.03989  -0.00083  -0.00173
   O      3.81083   3.05334   2.98138   0.02256   0.01205   0.03466
   Al     1.63021   0.85388   0.58385  -0.00433  -0.00197  -0.00160
   Al     3.91190   2.04899   1.40104  -0.00402  -0.00235  -0.00188
   Al     7.17233   3.75675   2.56875   0.00402   0.00235   0.00188
   Al     9.45402   4.95186   3.38593   0.00433   0.00197   0.00160
